/*--------------------------------*- C++ -*----------------------------------*\
| =========                 |                                                 |
| \\      /  F ield         | OpenFOAM: The Open Source CFD Toolbox           |
|  \\    /   O peration     | Version:  2.1.1                                 |
|   \\  /    A nd           | Web:      www.OpenFOAM.org                      |
|    \\/     M anipulation  |                                                 |
\*---------------------------------------------------------------------------*/
FoamFile
{
    version     2.0;
    format      ascii;
    class       volScalarField;
    location    "0.19";
    object      p;
}
// * * * * * * * * * * * * * * * * * * * * * * * * * * * * * * * * * * * * * //

dimensions      [0 2 -2 0 0 0 0];

internalField   nonuniform List<scalar> 
6820
(
-10.2075
-12.0537
-12.6287
-12.7564
-12.8634
-12.9425
-12.9969
-13.0432
-13.0855
-13.1243
-13.1604
-13.1945
-13.2269
-13.2576
-13.287
-13.315
-13.3418
-13.3675
-13.3922
-13.416
-13.439
-13.4612
-13.4827
-13.5034
-13.5234
-13.5425
-13.5605
-13.5769
-13.5907
-13.6008
-13.6028
-13.5909
-13.5515
-14.16
-13.6253
-13.2028
-13.0128
-12.9881
-12.9992
-13.0194
-13.0472
-13.0792
-13.1124
-13.1456
-13.1785
-13.2106
-13.2416
-13.2716
-13.3003
-13.3279
-13.3545
-13.38
-13.4046
-13.4283
-13.4512
-13.4734
-13.4949
-13.5156
-13.5356
-13.5546
-13.5729
-13.5897
-13.6068
-13.6224
-13.6583
-13.7067
-12.5175
-12.2137
-12.5002
-12.7453
-12.8502
-12.9255
-12.9844
-13.0336
-13.0775
-13.1174
-13.1542
-13.1888
-13.2213
-13.2521
-13.2813
-13.3092
-13.3359
-13.3615
-13.3861
-13.4099
-13.4328
-13.4551
-13.4767
-13.4977
-13.5181
-13.5379
-13.5572
-13.576
-13.5943
-13.6132
-13.6333
-13.6608
-13.6933
-13.0244
-13.0588
-13.0559
-12.9967
-12.9889
-13.0093
-13.0356
-13.0643
-13.0949
-13.1261
-13.1571
-13.1875
-13.2172
-13.2461
-13.2741
-13.3013
-13.3275
-13.3529
-13.3776
-13.4014
-13.4246
-13.4471
-13.4691
-13.4905
-13.5115
-13.5321
-13.5523
-13.5725
-13.5928
-13.6147
-13.6386
-13.6717
-13.7113
-12.869
-12.769
-12.8132
-12.8791
-12.932
-12.9785
-13.0191
-13.0563
-13.092
-13.1262
-13.1589
-13.1904
-13.2206
-13.2498
-13.2778
-13.3047
-13.3307
-13.3558
-13.3801
-13.4036
-13.4264
-13.4487
-13.4705
-13.4918
-13.5127
-13.5334
-13.5539
-13.5747
-13.5961
-13.6191
-13.6447
-13.6761
-13.7126
-12.9241
-12.9074
-12.9326
-12.9556
-12.9779
-13.0071
-13.0385
-13.07
-13.1016
-13.1328
-13.1633
-13.193
-13.2219
-13.2499
-13.277
-13.3032
-13.3286
-13.3533
-13.3772
-13.4005
-13.4233
-13.4455
-13.4672
-13.4886
-13.5097
-13.5307
-13.5518
-13.5732
-13.5955
-13.6194
-13.6456
-13.676
-13.7103
-12.9223
-12.9012
-12.917
-12.9458
-12.9758
-13.0086
-13.0414
-13.0733
-13.1047
-13.1355
-13.1655
-13.1947
-13.2231
-13.2507
-13.2774
-13.3033
-13.3284
-13.3528
-13.3765
-13.3996
-13.4221
-13.4442
-13.4659
-13.4873
-13.5085
-13.5297
-13.551
-13.5728
-13.5954
-13.6194
-13.6454
-13.6743
-13.7056
-12.9365
-12.9287
-12.944
-12.9685
-12.9937
-13.0217
-13.0512
-13.0808
-13.1104
-13.1398
-13.1686
-13.1968
-13.2244
-13.2512
-13.2773
-13.3026
-13.3273
-13.3513
-13.3747
-13.3975
-13.4199
-13.4418
-13.4634
-13.4848
-13.506
-13.5273
-13.5487
-13.5706
-13.5933
-13.6172
-13.6426
-13.6699
-13.6988
-12.9494
-12.9455
-12.9576
-12.9791
-13.003
-13.0297
-13.058
-13.0865
-13.115
-13.1433
-13.1713
-13.1987
-13.2255
-13.2517
-13.2772
-13.3021
-13.3263
-13.3499
-13.373
-13.3956
-13.4178
-13.4395
-13.461
-13.4823
-13.5034
-13.5247
-13.5461
-13.5679
-13.5905
-13.6139
-13.6384
-13.6642
-13.6909
-12.963
-12.9623
-12.9736
-12.993
-13.0151
-13.0398
-13.0661
-13.0929
-13.1201
-13.1472
-13.1741
-13.2006
-13.2267
-13.2521
-13.2771
-13.3014
-13.3252
-13.3484
-13.3711
-13.3934
-13.4153
-13.4369
-13.4582
-13.4793
-13.5003
-13.5214
-13.5427
-13.5643
-13.5865
-13.6093
-13.6329
-13.6572
-13.682
-12.9765
-12.9775
-12.9879
-13.0053
-13.0257
-13.0487
-13.0735
-13.099
-13.1249
-13.151
-13.1769
-13.2026
-13.2278
-13.2526
-13.2769
-13.3007
-13.324
-13.3468
-13.3692
-13.3912
-13.4128
-13.4341
-13.4551
-13.476
-13.4968
-13.5177
-13.5387
-13.56
-13.5817
-13.6038
-13.6264
-13.6494
-13.6726
-12.9898
-12.9917
-13.0015
-13.0173
-13.0363
-13.0577
-13.081
-13.1052
-13.1299
-13.1548
-13.1798
-13.2045
-13.229
-13.2531
-13.2768
-13.3
-13.3228
-13.3452
-13.3672
-13.3887
-13.41
-13.431
-13.4518
-13.4724
-13.493
-13.5135
-13.5342
-13.555
-13.5761
-13.5974
-13.6191
-13.6408
-13.6626
-13.0026
-13.005
-13.0142
-13.0287
-13.0463
-13.0664
-13.0882
-13.1111
-13.1347
-13.1586
-13.1825
-13.2064
-13.2301
-13.2535
-13.2766
-13.2992
-13.3215
-13.3434
-13.365
-13.3862
-13.4071
-13.4278
-13.4482
-13.4685
-13.4887
-13.5089
-13.5291
-13.5494
-13.5698
-13.5904
-13.6111
-13.6317
-13.6522
-13.0149
-13.0175
-13.0262
-13.0396
-13.0559
-13.0747
-13.0952
-13.1169
-13.1394
-13.1622
-13.1853
-13.2083
-13.2312
-13.2539
-13.2763
-13.2984
-13.3202
-13.3416
-13.3627
-13.3835
-13.404
-13.4243
-13.4444
-13.4643
-13.4841
-13.5038
-13.5235
-13.5433
-13.563
-13.5828
-13.6025
-13.6222
-13.6415
-13.0266
-13.0292
-13.0374
-13.0498
-13.0651
-13.0826
-13.102
-13.1225
-13.1439
-13.1658
-13.1879
-13.2101
-13.2322
-13.2542
-13.276
-13.2975
-13.3188
-13.3397
-13.3603
-13.3807
-13.4008
-13.4206
-13.4403
-13.4598
-13.4791
-13.4984
-13.5175
-13.5366
-13.5557
-13.5747
-13.5935
-13.6122
-13.6305
-13.0376
-13.0401
-13.0479
-13.0594
-13.0737
-13.0902
-13.1084
-13.1279
-13.1482
-13.1692
-13.1904
-13.2118
-13.2332
-13.2545
-13.2756
-13.2965
-13.3172
-13.3376
-13.3578
-13.3777
-13.3973
-13.4167
-13.4359
-13.4549
-13.4738
-13.4925
-13.5111
-13.5296
-13.5479
-13.5661
-13.5841
-13.6018
-13.6192
-13.0479
-13.0503
-13.0576
-13.0684
-13.0818
-13.0973
-13.1145
-13.133
-13.1523
-13.1723
-13.1927
-13.2133
-13.234
-13.2546
-13.2751
-13.2954
-13.3155
-13.3354
-13.3551
-13.3745
-13.3936
-13.4126
-13.4313
-13.4498
-13.4681
-13.4863
-13.5043
-13.5221
-13.5397
-13.5571
-13.5743
-13.5912
-13.6077
-13.0575
-13.0598
-13.0667
-13.0768
-13.0893
-13.1039
-13.1202
-13.1377
-13.1562
-13.1753
-13.1949
-13.2147
-13.2346
-13.2545
-13.2744
-13.2941
-13.3137
-13.3331
-13.3522
-13.3711
-13.3897
-13.4082
-13.4264
-13.4444
-13.4622
-13.4797
-13.4971
-13.5142
-13.5312
-13.5478
-13.5642
-13.5802
-13.5959
-13.0663
-13.0685
-13.075
-13.0844
-13.0962
-13.11
-13.1254
-13.1421
-13.1597
-13.178
-13.1967
-13.2158
-13.2351
-13.2543
-13.2736
-13.2927
-13.3117
-13.3305
-13.3491
-13.3675
-13.3856
-13.4035
-13.4212
-13.4387
-13.4559
-13.4729
-13.4896
-13.5061
-13.5223
-13.5382
-13.5538
-13.569
-13.5839
-13.0743
-13.0764
-13.0825
-13.0914
-13.1025
-13.1155
-13.1301
-13.146
-13.1628
-13.1803
-13.1984
-13.2167
-13.2353
-13.2539
-13.2725
-13.2911
-13.3095
-13.3278
-13.3458
-13.3637
-13.3813
-13.3987
-13.4158
-13.4327
-13.4493
-13.4657
-13.4818
-13.4976
-13.5131
-13.5283
-13.5431
-13.5576
-13.5717
-13.0816
-13.0836
-13.0893
-13.0977
-13.1082
-13.1205
-13.1344
-13.1495
-13.1656
-13.1824
-13.1997
-13.2174
-13.2353
-13.2533
-13.2713
-13.2893
-13.3071
-13.3248
-13.3424
-13.3597
-13.3767
-13.3936
-13.4102
-13.4265
-13.4425
-13.4583
-13.4737
-13.4889
-13.5037
-13.5182
-13.5323
-13.546
-13.5593
-13.0881
-13.0899
-13.0953
-13.1033
-13.1132
-13.1249
-13.1381
-13.1525
-13.1679
-13.184
-13.2007
-13.2177
-13.235
-13.2524
-13.2698
-13.2872
-13.3045
-13.3217
-13.3387
-13.3554
-13.372
-13.3882
-13.4043
-13.42
-13.4354
-13.4506
-13.4654
-13.4799
-13.494
-13.5078
-13.5212
-13.5342
-13.5467
-13.0937
-13.0954
-13.1006
-13.1081
-13.1175
-13.1286
-13.1412
-13.155
-13.1698
-13.1853
-13.2013
-13.2177
-13.2344
-13.2512
-13.2681
-13.2849
-13.3017
-13.3183
-13.3348
-13.351
-13.367
-13.3827
-13.3982
-13.4133
-13.4282
-13.4427
-13.4569
-13.4707
-13.4842
-13.4973
-13.51
-13.5223
-13.5341
-13.0984
-13.1001
-13.105
-13.1121
-13.121
-13.1317
-13.1437
-13.1569
-13.1711
-13.186
-13.2014
-13.2173
-13.2334
-13.2497
-13.266
-13.2823
-13.2986
-13.3147
-13.3306
-13.3463
-13.3617
-13.3769
-13.3918
-13.4064
-13.4207
-13.4346
-13.4482
-13.4614
-13.4742
-13.4866
-13.4986
-13.5102
-13.5214
-13.1023
-13.1039
-13.1085
-13.1153
-13.1239
-13.134
-13.1456
-13.1583
-13.172
-13.1864
-13.2013
-13.2166
-13.2322
-13.248
-13.2638
-13.2796
-13.2954
-13.3109
-13.3263
-13.3415
-13.3564
-13.3711
-13.3854
-13.3994
-13.4131
-13.4264
-13.4394
-13.4519
-13.4641
-13.4759
-13.4872
-13.4982
-13.5086
-13.1052
-13.1067
-13.1111
-13.1176
-13.1257
-13.1354
-13.1465
-13.1588
-13.172
-13.1859
-13.2003
-13.2152
-13.2303
-13.2456
-13.261
-13.2763
-13.2916
-13.3067
-13.3216
-13.3363
-13.3507
-13.3648
-13.3786
-13.3921
-13.4052
-13.418
-13.4303
-13.4423
-13.4539
-13.465
-13.4757
-13.486
-13.4958
-13.1072
-13.1087
-13.1129
-13.1192
-13.1271
-13.1366
-13.1474
-13.1593
-13.1721
-13.1856
-13.1996
-13.214
-13.2287
-13.2436
-13.2585
-13.2733
-13.2881
-13.3027
-13.3171
-13.3313
-13.3452
-13.3588
-13.3721
-13.385
-13.3975
-13.4097
-13.4215
-13.4329
-13.4438
-13.4543
-13.4644
-13.4741
-13.4833
-13.1081
-13.1094
-13.1132
-13.119
-13.1265
-13.1355
-13.1459
-13.1574
-13.1699
-13.183
-13.1968
-13.211
-13.2253
-13.2398
-13.2544
-13.2689
-13.2833
-13.2975
-13.3116
-13.3253
-13.3388
-13.352
-13.3648
-13.3772
-13.3893
-13.4009
-13.4122
-13.423
-13.4334
-13.4434
-13.4529
-13.4619
-13.4706
-13.1083
-13.1099
-13.1139
-13.1199
-13.1274
-13.1363
-13.1466
-13.1579
-13.1701
-13.183
-13.1963
-13.21
-13.224
-13.238
-13.2521
-13.2662
-13.2801
-13.2938
-13.3074
-13.3206
-13.3336
-13.3462
-13.3584
-13.3703
-13.3818
-13.3929
-13.4036
-13.4139
-13.4237
-13.433
-13.4419
-13.4504
-13.4584
-13.1066
-13.1072
-13.11
-13.1149
-13.1217
-13.1303
-13.1403
-13.1516
-13.1637
-13.1766
-13.19
-13.2038
-13.2177
-13.2318
-13.2458
-13.2598
-13.2736
-13.2871
-13.3004
-13.3135
-13.3261
-13.3385
-13.3504
-13.3619
-13.3731
-13.3838
-13.394
-13.4038
-13.4132
-13.4221
-13.4305
-13.4385
-13.446
-13.1061
-13.1087
-13.1131
-13.119
-13.1263
-13.1349
-13.1447
-13.1555
-13.1672
-13.1795
-13.1923
-13.2053
-13.2186
-13.232
-13.2454
-13.2587
-13.2718
-13.2848
-13.2975
-13.3099
-13.3219
-13.3337
-13.345
-13.3559
-13.3665
-13.3766
-13.3862
-13.3954
-13.4042
-13.4125
-13.4203
-13.4277
-13.4346
-13.0982
-13.0961
-13.0964
-13.1001
-13.1067
-13.1156
-13.1263
-13.1382
-13.151
-13.1645
-13.1783
-13.1924
-13.2065
-13.2206
-13.2346
-13.2484
-13.2619
-13.2752
-13.288
-13.3006
-13.3127
-13.3244
-13.3357
-13.3465
-13.3569
-13.3668
-13.3762
-13.3852
-13.3936
-13.4016
-13.4091
-13.4162
-13.4227
-13.1062
-13.1126
-13.1183
-13.1233
-13.129
-13.1363
-13.145
-13.1548
-13.1656
-13.1771
-13.189
-13.2013
-13.2139
-13.2265
-13.2391
-13.2516
-13.264
-13.2762
-13.288
-13.2996
-13.3109
-13.3217
-13.3322
-13.3423
-13.3519
-13.3611
-13.3698
-13.3781
-13.3859
-13.3933
-13.4002
-13.4066
-13.4125
-13.0741
-13.0606
-13.0556
-13.0608
-13.0708
-13.0833
-13.0974
-13.1125
-13.128
-13.1437
-13.1595
-13.1751
-13.1904
-13.2054
-13.2201
-13.2343
-13.2482
-13.2615
-13.2744
-13.2868
-13.2987
-13.3101
-13.321
-13.3314
-13.3413
-13.3506
-13.3595
-13.3678
-13.3756
-13.3829
-13.3896
-13.3959
-13.4016
-13.1281
-13.1485
-13.153
-13.1484
-13.1458
-13.1479
-13.1531
-13.1601
-13.1686
-13.1782
-13.1887
-13.1997
-13.211
-13.2225
-13.2342
-13.2457
-13.2572
-13.2685
-13.2795
-13.2902
-13.3007
-13.3107
-13.3204
-13.3296
-13.3384
-13.3468
-13.3547
-13.3622
-13.3692
-13.3757
-13.3818
-13.3873
-13.3925
-13.0053
-12.9557
-12.9439
-12.9697
-12.9979
-13.0223
-13.0462
-13.0693
-13.0914
-13.1124
-13.1323
-13.1512
-13.1691
-13.1863
-13.2025
-13.2181
-13.2329
-13.2469
-13.2603
-13.2731
-13.2852
-13.2967
-13.3075
-13.3178
-13.3275
-13.3365
-13.345
-13.353
-13.3603
-13.3671
-13.3734
-13.3791
-13.3842
-13.2537
-13.2886
-13.2577
-13.2153
-13.1866
-13.1755
-13.1726
-13.1734
-13.1772
-13.1834
-13.1911
-13.1999
-13.2094
-13.2194
-13.2296
-13.24
-13.2504
-13.2607
-13.2708
-13.2807
-13.2904
-13.2996
-13.3086
-13.3171
-13.3252
-13.3329
-13.3402
-13.347
-13.3534
-13.3593
-13.3647
-13.3697
-13.3743
-12.7615
-12.6417
-12.7041
-12.8056
-12.8795
-12.9315
-12.9752
-13.0135
-13.0468
-13.0762
-13.1025
-13.1264
-13.1482
-13.1682
-13.1868
-13.2041
-13.2202
-13.2353
-13.2495
-13.2628
-13.2753
-13.287
-13.298
-13.3083
-13.3179
-13.3268
-13.3351
-13.3428
-13.3499
-13.3564
-13.3622
-13.3675
-13.3722
-13.976
-13.6371
-13.3734
-13.2564
-13.2063
-13.181
-13.166
-13.1598
-13.16
-13.1641
-13.1707
-13.1791
-13.1885
-13.1987
-13.2093
-13.22
-13.2308
-13.2415
-13.252
-13.2622
-13.2722
-13.2817
-13.2909
-13.2997
-13.308
-13.3158
-13.3232
-13.3301
-13.3365
-13.3425
-13.3479
-13.3529
-13.3574
-11.4724
-12.1791
-12.5837
-12.736
-12.8408
-12.9232
-12.9827
-13.0278
-13.0644
-13.0948
-13.1206
-13.1433
-13.1635
-13.1819
-13.1987
-13.2143
-13.2289
-13.2425
-13.2553
-13.2674
-13.2787
-13.2893
-13.2993
-13.3087
-13.3174
-13.3256
-13.3331
-13.3401
-13.3465
-13.3524
-13.3577
-13.3624
-13.3666
-13.439
-13.6896
-13.8189
-13.9076
-13.9736
-14.0207
-14.0553
-14.0869
-14.1175
-14.1498
-14.1853
-14.2243
-14.267
-14.3132
-14.3621
-14.413
-14.465
-14.5173
-14.5691
-14.6196
-14.668
-14.7136
-14.7557
-14.7937
-14.8271
-14.8551
-14.8771
-14.8923
-14.8998
-14.8988
-14.8883
-14.8672
-14.8346
-14.7893
-14.7304
-14.6568
-14.5675
-14.4617
-14.3383
-14.1967
-14.0362
-13.8562
-13.6563
-13.4363
-13.196
-12.9356
-12.6553
-12.3556
-12.0372
-11.7008
-11.3475
-10.9784
-10.5951
-10.1989
-9.79168
-9.37523
-8.95156
-8.52275
-8.09097
-7.65838
-7.22717
-6.79945
-6.37728
-5.96261
-5.55724
-5.16284
-4.78088
-4.41265
-4.05925
-3.72155
-3.40024
-3.09579
-2.8085
-2.53847
-2.28565
-2.04985
-1.83075
-1.6279
-1.44079
-1.26882
-1.11135
-0.967696
-0.837157
-0.719024
-0.612595
-0.517176
-0.432108
-0.356721
-0.290449
-0.232608
-0.182814
-0.140176
-0.104808
-0.0749478
-0.0522486
-0.03212
-0.0206086
-0.00617139
-0.00226105
0.00299288
-14.024
-14.1624
-14.105
-14.0395
-14.0137
-13.9985
-13.9897
-13.9975
-14.0169
-14.0475
-14.0887
-14.1372
-14.1912
-14.2484
-14.3071
-14.3658
-14.4232
-14.4785
-14.5313
-14.5812
-14.628
-14.6714
-14.7112
-14.747
-14.7783
-14.8045
-14.8247
-14.8383
-14.8443
-14.8418
-14.8299
-14.8074
-14.7734
-14.7269
-14.6669
-14.5924
-14.5023
-14.3959
-14.2723
-14.1306
-13.9704
-13.7909
-13.5919
-13.373
-13.1343
-12.8758
-12.5977
-12.3006
-11.9852
-11.6521
-11.3024
-10.9374
-10.5582
-10.1665
-9.76395
-9.3523
-8.93351
-8.50963
-8.08273
-7.65493
-7.22836
-6.80509
-6.38711
-5.97635
-5.57457
-5.18342
-4.80436
-4.43866
-4.08742
-3.75151
-3.43164
-3.12827
-2.84173
-2.57214
-2.31947
-2.08354
-1.86406
-1.66061
-1.4727
-1.29977
-1.14118
-0.996287
-0.864407
-0.744852
-0.636938
-0.539984
-0.453348
-0.376373
-0.308496
-0.24905
-0.197643
-0.153417
-0.116426
-0.0850429
-0.0606506
-0.0392138
-0.0256502
-0.010764
-0.00314951
-0.00122323
-13.7455
-13.7562
-13.7781
-13.827
-13.8822
-13.9272
-13.967
-13.9969
-14.0292
-14.0609
-14.0952
-14.1322
-14.1726
-14.2165
-14.2634
-14.3127
-14.3638
-14.4157
-14.4674
-14.5181
-14.5666
-14.6121
-14.6538
-14.6909
-14.7228
-14.7489
-14.7685
-14.7809
-14.7854
-14.7812
-14.7675
-14.7434
-14.7078
-14.6599
-14.5986
-14.523
-14.4322
-14.3253
-14.2014
-14.0598
-13.8999
-13.7211
-13.5231
-13.3057
-13.0687
-12.8123
-12.5368
-12.2426
-11.9303
-11.6009
-11.2551
-10.8942
-10.5195
-10.1325
-9.73472
-9.32799
-8.91418
-8.49526
-8.07327
-7.65028
-7.22836
-6.80954
-6.39579
-5.98899
-5.59088
-5.20308
-4.82702
-4.46399
-4.11506
-3.7811
-3.46281
-3.16069
-2.87504
-2.60602
-2.35361
-2.11766
-1.89789
-1.69393
-1.50529
-1.33145
-1.17179
-1.0257
-0.892506
-0.77155
-0.662162
-0.563679
-0.47547
-0.396893
-0.327389
-0.266309
-0.213248
-0.167387
-0.128717
-0.0957444
-0.0695879
-0.0467563
-0.0310864
-0.0155781
-0.0044512
-0.00498148
-13.7985
-13.9072
-13.9662
-13.9842
-13.9919
-13.9966
-14.001
-14.0093
-14.0229
-14.0457
-14.0765
-14.1134
-14.1553
-14.2011
-14.2492
-14.2982
-14.3472
-14.3951
-14.4415
-14.4858
-14.5276
-14.5667
-14.6026
-14.6347
-14.6626
-14.6855
-14.7027
-14.7133
-14.7164
-14.7111
-14.6963
-14.6712
-14.6348
-14.586
-14.5239
-14.4476
-14.3563
-14.249
-14.125
-13.9836
-13.8243
-13.6464
-13.4496
-13.2337
-12.9987
-12.7446
-12.4718
-12.1806
-11.8718
-11.546
-11.2043
-10.8476
-10.4774
-10.0951
-9.70217
-9.30039
-8.8916
-8.47772
-8.06074
-7.64269
-7.22558
-6.81141
-6.40211
-5.9995
-5.60531
-5.22111
-4.84833
-4.48821
-4.14182
-3.81003
-3.49353
-3.19282
-2.90823
-2.63992
-2.3879
-2.15203
-1.93208
-1.72767
-1.53837
-1.36367
-1.203
-1.05574
-0.921269
-0.798936
-0.688094
-0.588096
-0.498323
-0.418146
-0.347013
-0.284286
-0.229551
-0.182025
-0.141634
-0.107021
-0.0790454
-0.0547375
-0.0369221
-0.0206103
-0.00620444
-0.00822526
-13.7671
-13.8144
-13.8317
-13.8464
-13.8718
-13.9006
-13.9292
-13.9572
-13.991
-14.026
-14.0602
-14.0974
-14.1372
-14.1792
-14.2226
-14.2671
-14.3121
-14.3569
-14.4011
-14.4439
-14.4846
-14.5226
-14.557
-14.5874
-14.6129
-14.633
-14.647
-14.6541
-14.6537
-14.645
-14.627
-14.599
-14.56
-14.509
-14.4451
-14.3675
-14.2751
-14.1672
-14.043
-13.9017
-13.7428
-13.5657
-13.3702
-13.1559
-12.9229
-12.6713
-12.4012
-12.1132
-11.8078
-11.4858
-11.1482
-10.796
-10.4304
-10.053
-9.66509
-9.26851
-8.865
-8.45644
-8.04478
-7.63198
-7.22001
-6.81082
-6.40628
-6.00818
-5.61822
-5.23791
-4.86867
-4.51171
-4.16808
-3.83866
-3.52411
-3.22497
-2.94155
-2.67405
-2.4225
-2.18678
-1.96668
-1.76188
-1.57195
-1.39642
-1.23475
-1.08634
-0.950602
-0.826902
-0.714613
-0.613106
-0.521774
-0.440001
-0.367237
-0.30286
-0.246442
-0.197235
-0.155103
-0.118814
-0.0889813
-0.0631292
-0.0431451
-0.0258528
-0.00842856
-0.0109299
-13.757
-13.8104
-13.8528
-13.8863
-13.9146
-13.9379
-13.9584
-13.9793
-13.996
-14.021
-14.0503
-14.0833
-14.1197
-14.1588
-14.1998
-14.242
-14.2846
-14.3266
-14.3676
-14.4067
-14.4435
-14.4774
-14.5079
-14.5344
-14.5565
-14.5734
-14.5844
-14.5889
-14.5861
-14.575
-14.5548
-14.5246
-14.4835
-14.4306
-14.365
-14.2857
-14.1921
-14.0831
-13.9582
-13.8167
-13.6579
-13.4814
-13.2869
-13.0741
-12.843
-12.5936
-12.3263
-12.0414
-11.7396
-11.4215
-11.0881
-10.7405
-10.3798
-10.0074
-9.62481
-9.23367
-8.83571
-8.43276
-8.02671
-7.61947
-7.21295
-6.80903
-6.40954
-6.01622
-5.6307
-5.2545
-4.88897
-4.53531
-4.19456
-3.86759
-3.55507
-3.25754
-2.97535
-2.70869
-2.45763
-2.22208
-2.00186
-1.79666
-1.6061
-1.42974
-1.26706
-1.1175
-0.980487
-0.855411
-0.741667
-0.63864
-0.545739
-0.46236
-0.387958
-0.321922
-0.263813
-0.212913
-0.169026
-0.131039
-0.0993281
-0.0718803
-0.0497218
-0.0312844
-0.011113
-0.0131045
-13.7451
-13.7888
-13.8221
-13.8471
-13.8703
-13.8933
-13.9161
-13.9395
-13.9693
-13.9987
-14.0299
-14.0634
-14.099
-14.1364
-14.175
-14.2142
-14.2535
-14.2923
-14.33
-14.3661
-14.4
-14.4311
-14.4588
-14.4826
-14.5017
-14.5156
-14.5236
-14.525
-14.519
-14.5048
-14.4816
-14.4486
-14.405
-14.3498
-14.2821
-14.2012
-14.1061
-13.9962
-13.8707
-13.7289
-13.5703
-13.3944
-13.2009
-12.9895
-12.7603
-12.5134
-12.2489
-11.9672
-11.669
-11.355
-11.026
-10.6831
-10.3274
-9.96034
-9.58328
-9.19783
-8.80567
-8.40857
-8.00835
-7.60686
-7.20595
-6.80745
-6.41313
-6.02467
-5.64367
-5.27161
-4.90982
-4.55948
-4.22162
-3.8971
-3.58662
-3.29071
-3.00973
-2.74392
-2.49334
-2.25795
-2.0376
-1.832
-1.64082
-1.46362
-1.29992
-1.1492
-1.0109
-0.884434
-0.769218
-0.664657
-0.570169
-0.485165
-0.409106
-0.341394
-0.281577
-0.228969
-0.18331
-0.143607
-0.110003
-0.0809189
-0.0565948
-0.0368654
-0.0142056
-0.0147954
-13.7337
-13.773
-13.807
-13.8361
-13.8632
-13.8889
-13.9138
-13.9373
-13.9615
-13.9876
-14.016
-14.0468
-14.0797
-14.1143
-14.1501
-14.1865
-14.223
-14.259
-14.2938
-14.3268
-14.3576
-14.3855
-14.4099
-14.4304
-14.4463
-14.457
-14.4618
-14.4601
-14.4512
-14.4342
-14.4083
-14.3727
-14.3267
-14.2692
-14.1996
-14.1169
-14.0204
-13.9094
-13.7831
-13.641
-13.4825
-13.3071
-13.1146
-12.9047
-12.6775
-12.4329
-12.1712
-11.8929
-11.5985
-11.2886
-10.9641
-10.626
-10.2755
-9.91382
-9.54237
-9.16267
-8.77636
-8.38514
-7.99077
-7.59503
-7.19972
-6.80661
-6.41741
-6.03378
-5.65726
-5.2893
-4.93122
-4.58417
-4.24917
-3.92709
-3.61863
-3.32432
-3.04456
-2.77958
-2.52949
-2.29427
-2.07378
-1.8678
-1.67598
-1.49795
-1.33324
-1.18136
-1.04176
-0.913901
-0.797205
-0.691096
-0.595007
-0.508363
-0.430628
-0.361219
-0.299673
-0.245334
-0.197884
-0.15644
-0.120929
-0.0901707
-0.0636947
-0.0425445
-0.017612
-0.0160858
-13.7224
-13.7578
-13.7897
-13.8177
-13.8434
-13.8679
-13.8914
-13.9158
-13.941
-13.9677
-13.9961
-14.0261
-14.0575
-14.0903
-14.1238
-14.1577
-14.1914
-14.2245
-14.2563
-14.2863
-14.314
-14.3389
-14.3603
-14.3778
-14.3907
-14.3984
-14.4003
-14.3956
-14.3837
-14.3639
-14.3353
-14.2971
-14.2487
-14.189
-14.1174
-14.0331
-13.9352
-13.8232
-13.6963
-13.5539
-13.3955
-13.2207
-13.0292
-12.8209
-12.5956
-12.3535
-12.0947
-11.8197
-11.529
-11.2233
-10.9033
-10.5701
-10.2247
-9.86834
-9.50244
-9.12845
-8.74793
-8.36253
-7.97393
-7.58388
-7.1941
-6.80631
-6.42218
-6.04332
-5.67123
-5.30734
-4.95292
-4.60914
-4.27699
-3.95734
-3.65088
-3.35818
-3.07963
-2.8155
-2.56591
-2.33087
-2.11027
-1.9039
-1.71147
-1.53261
-1.36689
-1.21385
-1.07297
-0.943718
-0.825541
-0.71788
-0.620184
-0.531888
-0.452464
-0.381342
-0.318048
-0.261956
-0.212694
-0.169483
-0.132047
-0.0995764
-0.070959
-0.0482752
-0.0212156
-0.0170901
-13.7109
-13.7434
-13.7738
-13.8015
-13.8275
-13.8524
-13.8767
-13.9009
-13.9255
-13.9512
-13.978
-14.0062
-14.0356
-14.066
-14.0971
-14.1284
-14.1594
-14.1896
-14.2185
-14.2456
-14.2703
-14.2922
-14.3106
-14.325
-14.3349
-14.3396
-14.3385
-14.3309
-14.3162
-14.2936
-14.2623
-14.2217
-14.1709
-14.1092
-14.0358
-13.9498
-13.8507
-13.7377
-13.6102
-13.4676
-13.3094
-13.1353
-12.9449
-12.7381
-12.5148
-12.2751
-12.0192
-11.7476
-11.4606
-11.1589
-10.8434
-10.515
-10.1747
-9.82366
-9.46327
-9.09492
-8.72011
-8.34045
-7.95756
-7.57312
-7.18881
-6.80629
-6.42718
-6.05304
-5.68535
-5.32549
-4.97473
-4.63419
-4.30488
-3.98766
-3.68322
-3.39214
-3.11482
-2.85155
-2.60247
-2.36763
-2.14693
-1.94019
-1.74716
-1.56749
-1.40079
-1.2466
-1.10444
-0.9738
-0.854144
-0.744932
-0.645625
-0.555672
-0.474551
-0.401704
-0.336647
-0.278786
-0.227694
-0.182691
-0.143315
-0.109094
-0.0783399
-0.0540276
-0.0249069
-0.0179404
-13.6993
-13.7295
-13.7583
-13.7851
-13.8105
-13.835
-13.8588
-13.8826
-13.9067
-13.9316
-13.9575
-13.9844
-14.0121
-14.0406
-14.0694
-14.0982
-14.1266
-14.1541
-14.1801
-14.2043
-14.2261
-14.245
-14.2605
-14.272
-14.2789
-14.2806
-14.2766
-14.2662
-14.2487
-14.2234
-14.1896
-14.1466
-14.0935
-14.0298
-13.9545
-13.8671
-13.7668
-13.6529
-13.5248
-13.3821
-13.2242
-13.0507
-12.8614
-12.6562
-12.4349
-12.1976
-11.9446
-11.6762
-11.393
-11.0954
-10.7843
-10.4606
-10.1253
-9.77957
-9.42461
-9.06183
-8.69268
-8.31869
-7.94145
-7.56257
-7.18367
-6.80636
-6.43223
-6.06278
-5.69946
-5.34362
-4.99649
-4.65921
-4.33274
-4.01795
-3.71554
-3.42608
-3.15001
-2.88762
-2.63909
-2.40446
-2.18368
-1.9766
-1.78299
-1.60253
-1.43485
-1.27953
-1.1361
-1.00408
-0.882948
-0.772187
-0.671268
-0.579655
-0.49683
-0.42225
-0.355421
-0.295777
-0.24284
-0.196026
-0.154696
-0.118691
-0.0858016
-0.0597863
-0.0286006
-0.0187657
-13.6876
-13.7158
-13.7431
-13.769
-13.7938
-13.8179
-13.8414
-13.8647
-13.8883
-13.9123
-13.9369
-13.9622
-13.9882
-14.0146
-14.0411
-14.0675
-14.0933
-14.1181
-14.1414
-14.1628
-14.1817
-14.1977
-14.2102
-14.2187
-14.2227
-14.2216
-14.2147
-14.2015
-14.1812
-14.1533
-14.117
-14.0716
-14.0164
-13.9507
-13.8738
-13.7849
-13.6834
-13.5686
-13.4401
-13.2972
-13.1396
-12.9669
-12.7787
-12.575
-12.3557
-12.1209
-11.8708
-11.6057
-11.3261
-11.0326
-10.7259
-10.4068
-10.0765
-9.73593
-9.38635
-9.02907
-8.66551
-8.29714
-7.92548
-7.5521
-7.17856
-6.80643
-6.43724
-6.07245
-5.71348
-5.36164
-5.01814
-4.6841
-4.36048
-4.04813
-3.74776
-3.45995
-3.18515
-2.92366
-2.67569
-2.4413
-2.22047
-2.01307
-1.8189
-1.63766
-1.46902
-1.31258
-1.16789
-1.0345
-0.911901
-0.799594
-0.697064
-0.603789
-0.519256
-0.442935
-0.374325
-0.312885
-0.258092
-0.209452
-0.166156
-0.128341
-0.0933142
-0.0655441
-0.0322366
-0.0196739
-13.6757
-13.7022
-13.7281
-13.753
-13.7771
-13.8005
-13.8233
-13.846
-13.8688
-13.8918
-13.9152
-13.9391
-13.9633
-13.9878
-14.0122
-14.0362
-14.0595
-14.0816
-14.1022
-14.1208
-14.1369
-14.1501
-14.1597
-14.1654
-14.1665
-14.1625
-14.1528
-14.1369
-14.114
-14.0835
-14.0448
-13.9971
-13.9398
-13.8721
-13.7935
-13.7032
-13.6006
-13.4851
-13.3561
-13.2131
-13.0558
-12.8838
-12.6968
-12.4946
-12.2773
-12.045
-11.7977
-11.5358
-11.2598
-10.9703
-10.6679
-10.3536
-10.0281
-9.69268
-9.34841
-8.99658
-8.63855
-8.27573
-7.9096
-7.54166
-7.17344
-6.80644
-6.44215
-6.08199
-5.72734
-5.37949
-5.03962
-4.70881
-4.38804
-4.07814
-3.77983
-3.49369
-3.22017
-2.95961
-2.71222
-2.4781
-2.25724
-2.04954
-1.85483
-1.67284
-1.50326
-1.34571
-1.19978
-1.06502
-0.940963
-0.827113
-0.722973
-0.628033
-0.541788
-0.463721
-0.393321
-0.330077
-0.273419
-0.222937
-0.177668
-0.138022
-0.100852
-0.0712972
-0.0357744
-0.0207433
-13.6637
-13.6887
-13.7132
-13.7371
-13.7603
-13.7829
-13.8051
-13.827
-13.8489
-13.8709
-13.893
-13.9154
-13.9379
-13.9604
-13.9827
-14.0044
-14.0252
-14.0448
-14.0628
-14.0787
-14.092
-14.1023
-14.1092
-14.112
-14.1103
-14.1035
-14.0911
-14.0724
-14.0469
-14.0139
-13.9728
-13.9229
-13.8635
-13.7941
-13.7138
-13.6221
-13.5185
-13.4022
-13.2728
-13.1298
-12.9728
-12.8015
-12.6157
-12.4151
-12.1998
-11.9698
-11.7253
-11.4666
-11.1943
-10.9087
-10.6106
-10.3008
-9.98019
-9.64982
-9.31079
-8.96434
-8.61177
-8.25444
-7.89377
-7.53123
-7.16827
-6.80636
-6.44693
-6.09137
-5.74102
-5.39713
-5.06088
-4.73331
-4.41539
-4.10795
-3.81171
-3.52725
-3.25504
-2.99543
-2.74864
-2.51481
-2.29394
-2.08597
-1.89074
-1.70802
-1.53751
-1.37888
-1.23171
-1.0956
-0.970092
-0.854704
-0.748957
-0.652353
-0.564393
-0.484574
-0.412379
-0.347322
-0.288789
-0.236455
-0.189205
-0.147712
-0.10839
-0.0770425
-0.0391875
-0.0220228
-13.6514
-13.6751
-13.6984
-13.7212
-13.7434
-13.7652
-13.7865
-13.8076
-13.8285
-13.8493
-13.8702
-13.8911
-13.9119
-13.9325
-13.9526
-13.9721
-13.9906
-14.0077
-14.023
-14.0363
-14.0469
-14.0545
-14.0585
-14.0586
-14.0541
-14.0446
-14.0295
-14.0082
-13.9802
-13.9447
-13.9013
-13.8492
-13.7878
-13.7166
-13.6347
-13.5418
-13.4371
-13.3201
-13.1903
-13.0473
-12.8907
-12.7201
-12.5354
-12.3364
-12.123
-11.8954
-11.6537
-11.3982
-11.1294
-10.8477
-10.5538
-10.2485
-9.93271
-9.60734
-9.27349
-8.93235
-8.58516
-8.23326
-7.878
-7.52078
-7.16303
-6.80616
-6.45155
-6.10056
-5.75448
-5.41454
-5.08188
-4.75755
-4.44248
-4.13751
-3.84334
-3.56058
-3.2897
-3.03106
-2.7849
-2.55138
-2.33053
-2.12231
-1.92658
-1.74315
-1.57174
-1.41203
-1.26366
-1.12621
-0.999249
-0.882331
-0.77498
-0.676713
-0.587037
-0.505464
-0.431468
-0.364591
-0.304177
-0.249982
-0.200744
-0.157393
-0.115907
-0.0827768
-0.04246
-0.0235353
-13.639
-13.6614
-13.6835
-13.7052
-13.7265
-13.7473
-13.7677
-13.7878
-13.8076
-13.8273
-13.8469
-13.8662
-13.8853
-13.904
-13.9222
-13.9394
-13.9556
-13.9703
-13.9831
-13.9937
-14.0017
-14.0066
-14.0079
-14.0053
-13.9981
-13.986
-13.9682
-13.9443
-13.9138
-13.876
-13.8302
-13.776
-13.7127
-13.6397
-13.5564
-13.4622
-13.3565
-13.2388
-13.1087
-12.9657
-12.8094
-12.6396
-12.456
-12.2586
-12.0471
-11.8219
-11.5829
-11.3306
-11.0652
-10.7874
-10.4977
-10.1968
-9.88571
-9.56526
-9.23652
-8.90061
-8.55874
-8.21219
-7.86226
-7.51032
-7.15772
-6.80583
-6.456
-6.10953
-5.76769
-5.43168
-5.1026
-4.78149
-4.46927
-4.16677
-3.87469
-3.59364
-3.3241
-3.06645
-2.82094
-2.58776
-2.36695
-2.15851
-1.96231
-1.77819
-1.60589
-1.44513
-1.29556
-1.15678
-1.02839
-0.909953
-0.801004
-0.701078
-0.609687
-0.526358
-0.450559
-0.381856
-0.319556
-0.263493
-0.212263
-0.167049
-0.123385
-0.0884964
-0.0455848
-0.0252838
-13.6264
-13.6476
-13.6685
-13.6891
-13.7094
-13.7292
-13.7486
-13.7677
-13.7864
-13.8049
-13.8231
-13.8409
-13.8583
-13.8752
-13.8913
-13.9064
-13.9203
-13.9326
-13.943
-13.9511
-13.9565
-13.9587
-13.9574
-13.9521
-13.9423
-13.9275
-13.9072
-13.8809
-13.8479
-13.8077
-13.7598
-13.7035
-13.6383
-13.5636
-13.4788
-13.3834
-13.2768
-13.1585
-13.028
-12.8851
-12.7292
-12.5601
-12.3777
-12.1817
-11.9722
-11.7493
-11.513
-11.2637
-11.0018
-10.7278
-10.4422
-10.1457
-9.83923
-9.52363
-9.19991
-8.86915
-8.53253
-8.19125
-7.84659
-7.49984
-7.15232
-6.80536
-6.46025
-6.11827
-5.78064
-5.44852
-5.12301
-4.80511
-4.49573
-4.1957
-3.90571
-3.62638
-3.3582
-3.10155
-2.85672
-2.62389
-2.40315
-2.19451
-1.99786
-1.81307
-1.63992
-1.47813
-1.32737
-1.18729
-1.05748
-0.937527
-0.826989
-0.725409
-0.632307
-0.547223
-0.46962
-0.39909
-0.334901
-0.276965
-0.223738
-0.176661
-0.130805
-0.0941968
-0.0485609
-0.0272571
-13.6136
-13.6337
-13.6535
-13.673
-13.6922
-13.711
-13.7293
-13.7473
-13.7649
-13.7821
-13.7989
-13.8152
-13.831
-13.846
-13.8602
-13.8732
-13.8849
-13.8948
-13.9028
-13.9084
-13.9113
-13.911
-13.9071
-13.8992
-13.8869
-13.8695
-13.8467
-13.8178
-13.7825
-13.7401
-13.69
-13.6317
-13.5647
-13.4884
-13.4022
-13.3056
-13.1981
-13.0792
-12.9484
-12.8055
-12.65
-12.4817
-12.3004
-12.1059
-11.8983
-11.6777
-11.4441
-11.1978
-10.9393
-10.6689
-10.3874
-10.0952
-9.79329
-9.48246
-9.16369
-8.83801
-8.50654
-8.17045
-7.83097
-7.48935
-7.14685
-6.80475
-6.46432
-6.12677
-5.7933
-5.46504
-5.14307
-4.82836
-4.52181
-4.22424
-3.93635
-3.65875
-3.39194
-3.13631
-2.89218
-2.65973
-2.43908
-2.23025
-2.03319
-1.84776
-1.67377
-1.51096
-1.35904
-1.21767
-1.08646
-0.965008
-0.852891
-0.749665
-0.654858
-0.568022
-0.488617
-0.41626
-0.350182
-0.290374
-0.235147
-0.186214
-0.138148
-0.0998719
-0.0513905
-0.0294353
-13.6007
-13.6196
-13.6383
-13.6568
-13.6749
-13.6926
-13.7099
-13.7267
-13.7431
-13.759
-13.7744
-13.7892
-13.8033
-13.8165
-13.8288
-13.8398
-13.8493
-13.857
-13.8626
-13.8658
-13.8662
-13.8634
-13.857
-13.8466
-13.8317
-13.8119
-13.7866
-13.7554
-13.7178
-13.6731
-13.621
-13.5608
-13.492
-13.4141
-13.3265
-13.2288
-13.1204
-13.001
-12.87
-12.7271
-12.572
-12.4044
-12.2242
-12.0313
-11.8256
-11.6071
-11.3762
-11.1329
-10.8777
-10.611
-10.3333
-10.0454
-9.74797
-9.44182
-9.12789
-8.8072
-8.4808
-8.14982
-7.81544
-7.47886
-7.14131
-6.804
-6.46817
-6.13501
-5.80566
-5.48123
-5.16275
-4.85121
-4.54749
-4.25237
-3.96658
-3.69071
-3.42527
-3.17068
-2.92726
-2.69521
-2.47467
-2.26569
-2.06822
-1.88218
-1.70737
-1.54358
-1.39052
-1.24787
-1.11528
-0.992345
-0.878662
-0.773801
-0.677298
-0.588717
-0.507515
-0.433335
-0.365369
-0.303692
-0.246466
-0.195687
-0.145397
-0.105514
-0.054077
-0.0317954
-13.5876
-13.6054
-13.6231
-13.6404
-13.6575
-13.6741
-13.6903
-13.706
-13.7211