/*--------------------------------*- C++ -*----------------------------------*\
| =========                 |                                                 |
| \\      /  F ield         | OpenFOAM: The Open Source CFD Toolbox           |
|  \\    /   O peration     | Version:  2.1.1                                 |
|   \\  /    A nd           | Web:      www.OpenFOAM.org                      |
|    \\/     M anipulation  |                                                 |
\*---------------------------------------------------------------------------*/
FoamFile
{
    version     2.0;
    format      ascii;
    class       surfaceScalarField;
    location    "0.19";
    object      phi;
}
// * * * * * * * * * * * * * * * * * * * * * * * * * * * * * * * * * * * * * //

dimensions      [0 3 -1 0 0 0 0];

internalField   nonuniform List<scalar> 
13452
(
6.89922e-05
-5.04965e-07
6.88133e-05
1.78969e-07
6.82015e-05
6.11796e-07
6.72535e-05
9.47981e-07
6.61762e-05
1.07729e-06
6.50838e-05
1.09242e-06
6.4018e-05
1.0658e-06
6.29961e-05
1.02186e-06
6.20265e-05
9.69567e-07
6.11127e-05
9.13821e-07
6.02557e-05
8.57036e-07
5.9455e-05
8.00666e-07
5.87094e-05
7.45659e-07
5.80167e-05
6.92678e-07
5.73745e-05
6.42172e-07
5.67801e-05
5.94425e-07
5.62305e-05
5.49594e-07
5.57228e-05
5.07736e-07
5.52539e-05
4.68839e-07
5.48211e-05
4.32841e-07
5.44214e-05
3.99651e-07
5.40523e-05
3.69167e-07
5.3711e-05
3.41297e-07
5.3395e-05
3.1598e-07
5.31018e-05
2.93221e-07
5.28286e-05
2.73149e-07
5.25725e-05
2.56123e-07
5.23295e-05
2.43032e-07
5.20939e-05
2.35543e-07
5.18552e-05
2.38706e-07
5.15945e-05
2.60664e-07
5.12624e-05
3.32166e-07
5.14349e-07
5.0748e-05
7.01649e-05
-2.25953e-07
7.00411e-05
3.0285e-07
7.01816e-05
4.71257e-07
7.05088e-05
6.20814e-07
7.08591e-05
7.26988e-07
7.11577e-05
7.93785e-07
7.1382e-05
8.41466e-07
7.15337e-05
8.70174e-07
7.16207e-05
8.82606e-07
7.16518e-05
8.8274e-07
7.16353e-05
8.73528e-07
7.15786e-05
8.57296e-07
7.14884e-05
8.35853e-07
7.13705e-05
8.10666e-07
7.12297e-05
7.82912e-07
7.10706e-05
7.53533e-07
7.08969e-05
7.23279e-07
7.07119e-05
6.92742e-07
7.05184e-05
6.62384e-07
7.03187e-05
6.3256e-07
7.01148e-05
6.03548e-07
6.99084e-05
5.7557e-07
6.97008e-05
5.48814e-07
6.94934e-05
5.23462e-07
6.92868e-05
4.99738e-07
6.90821e-05
4.77925e-07
6.88796e-05
4.58553e-07
6.86804e-05
4.42274e-07
6.8485e-05
4.30905e-07
6.82983e-05
4.254e-07
6.81259e-05
4.33108e-07
6.80143e-05
4.43797e-07
4.84106e-07
6.80445e-05
7.22816e-05
-5.09906e-08
7.23966e-05
1.87811e-07
7.25013e-05
3.66595e-07
7.25876e-05
5.34538e-07
7.26706e-05
6.43984e-07
7.27523e-05
7.12079e-07
7.2838e-05
7.5569e-07
7.29243e-05
7.83877e-07
7.30071e-05
7.99817e-07
7.30838e-05
8.06059e-07
7.31528e-05
8.04562e-07
7.32132e-05
7.96897e-07
7.32647e-05
7.84347e-07
7.33073e-05
7.6803e-07
7.33413e-05
7.48891e-07
7.33671e-05
7.27721e-07
7.33852e-05
7.05178e-07
7.33962e-05
6.81798e-07
7.34006e-05
6.58022e-07
7.33989e-05
6.34204e-07
7.33918e-05
6.1064e-07
7.33798e-05
5.87577e-07
7.33634e-05
5.6524e-07
7.3343e-05
5.43852e-07
7.33191e-05
5.23675e-07
7.3292e-05
5.05026e-07
7.32621e-05
4.88418e-07
7.32299e-05
4.74418e-07
7.31964e-05
4.64419e-07
7.31631e-05
4.58699e-07
7.31342e-05
4.62037e-07
7.31125e-05
4.65504e-07
4.93215e-07
7.31034e-05
7.45184e-05
-4.28038e-08
7.44879e-05
2.18304e-07
7.44763e-05
3.78259e-07
7.45156e-05
4.95257e-07
7.45755e-05
5.84078e-07
7.46414e-05
6.46185e-07
7.47067e-05
6.90345e-07
7.477e-05
7.20621e-07
7.48308e-05
7.38968e-07
7.48891e-05
7.47757e-07
7.49447e-05
7.49016e-07
7.49973e-05
7.44303e-07
7.50467e-05
7.34866e-07
7.5093e-05
7.21768e-07
7.5136e-05
7.05889e-07
7.51758e-05
6.8796e-07
7.52123e-05
6.68587e-07
7.52459e-05
6.48268e-07
7.52765e-05
6.27415e-07
7.53043e-05
6.06366e-07
7.53296e-05
5.85403e-07
7.53524e-05
5.6477e-07
7.53729e-05
5.44692e-07
7.53914e-05
5.25389e-07
7.54079e-05
5.07113e-07
7.54228e-05
4.90151e-07
7.54363e-05
4.74926e-07
7.54489e-05
4.61849e-07
7.54615e-05
4.51771e-07
7.54756e-05
4.44642e-07
7.54954e-05
4.4219e-07
7.55221e-05
4.38794e-07
4.38269e-07
7.55771e-05
7.66035e-05
9.53528e-09
7.6628e-05
1.93778e-07
7.66642e-05
3.42088e-07
7.6702e-05
4.57437e-07
7.674e-05
5.461e-07
7.67791e-05
6.07121e-07
7.68205e-05
6.48961e-07
7.68638e-05
6.77331e-07
7.69079e-05
6.94838e-07
7.6952e-05
7.03631e-07
7.69955e-05
7.05479e-07
7.70381e-05
7.01757e-07
7.70794e-05
6.93588e-07
7.71192e-05
6.81935e-07
7.71575e-05
6.67607e-07
7.71942e-05
6.51282e-07
7.72292e-05
6.33523e-07
7.72627e-05
6.14798e-07
7.72946e-05
5.95495e-07
7.7325e-05
5.75934e-07
7.73541e-05
5.56386e-07
7.73817e-05
5.37085e-07
7.74082e-05
5.18243e-07
7.74335e-05
5.00067e-07
7.74579e-05
4.82781e-07
7.74814e-05
4.6662e-07
7.75044e-05
4.51894e-07
7.75274e-05
4.38852e-07
7.75513e-05
4.27922e-07
7.75771e-05
4.18799e-07
7.76074e-05
4.1185e-07
7.7643e-05
4.03215e-07
3.93485e-07
7.76878e-05
7.88311e-05
2.43396e-08
7.88386e-05
1.86282e-07
7.88565e-05
3.24174e-07
7.88851e-05
4.28893e-07
7.8921e-05
5.10171e-07
7.89597e-05
5.68431e-07
7.89993e-05
6.09394e-07
7.9039e-05
6.3758e-07
7.90786e-05
6.55287e-07
7.91177e-05
6.64494e-07
7.91562e-05
6.66925e-07
7.91941e-05
6.63938e-07
7.9231e-05
6.56635e-07
7.9267e-05
6.45944e-07
7.9302e-05
6.32639e-07
7.93359e-05
6.17369e-07
7.93687e-05
6.00671e-07
7.94005e-05
5.82992e-07
7.94313e-05
5.64701e-07
7.94612e-05
5.46108e-07
7.94901e-05
5.27469e-07
7.95182e-05
5.09008e-07
7.95455e-05
4.90924e-07
7.95721e-05
4.73402e-07
7.95983e-05
4.5663e-07
7.96241e-05
4.40787e-07
7.965e-05
4.26071e-07
7.96762e-05
4.12593e-07
7.97037e-05
4.00476e-07
7.97332e-05
3.89304e-07
7.97663e-05
3.78745e-07
7.98032e-05
3.66252e-07
3.50927e-07
7.98458e-05
8.10847e-05
3.81949e-08
8.10946e-05
1.76425e-07
8.11178e-05
3.00922e-07
8.11482e-05
3.98517e-07
8.11825e-05
4.75886e-07
8.1218e-05
5.32896e-07
8.12541e-05
5.73329e-07
8.12904e-05
6.01197e-07
8.13268e-05
6.18888e-07
8.1363e-05
6.28339e-07
8.13987e-05
6.3121e-07
8.14338e-05
6.28811e-07
8.14683e-05
6.22203e-07
8.15019e-05
6.12278e-07
8.15348e-05
5.99782e-07
8.15668e-05
5.85336e-07
8.1598e-05
5.69457e-07
8.16285e-05
5.52574e-07
8.16581e-05
5.35045e-07
8.16871e-05
5.17165e-07
8.17154e-05
4.99181e-07
8.17431e-05
4.81305e-07
8.17703e-05
4.63719e-07
8.17971e-05
4.46586e-07
8.18237e-05
4.30056e-07
8.18502e-05
4.14252e-07
8.1877e-05
3.99282e-07
8.19044e-05
3.85153e-07
8.19331e-05
3.71801e-07
8.19636e-05
3.58778e-07
8.19968e-05
3.45526e-07
8.20327e-05
3.30348e-07
3.12223e-07
8.20714e-05
8.341e-05
4.37007e-08
8.34198e-05
1.6662e-07
8.34405e-05
2.80301e-07
8.34677e-05
3.7127e-07
8.34997e-05
4.43884e-07
8.3534e-05
4.98564e-07
8.35694e-05
5.38013e-07
8.3605e-05
5.65544e-07
8.36406e-05
5.83342e-07
8.36757e-05
5.93171e-07
8.37104e-05
5.96571e-07
8.37444e-05
5.94801e-07
8.37777e-05
5.8889e-07
8.38103e-05
5.79701e-07
8.38421e-05
5.67955e-07
8.38732e-05
5.54257e-07
8.39035e-05
5.39106e-07
8.39332e-05
5.22918e-07
8.39622e-05
5.06039e-07
8.39906e-05
4.88755e-07
8.40185e-05
4.71302e-07
8.40459e-05
4.53879e-07
8.4073e-05
4.36652e-07
8.40998e-05
4.19763e-07
8.41265e-05
4.03324e-07
8.41534e-05
3.87415e-07
8.41806e-05
3.72073e-07
8.42085e-05
3.57238e-07
8.42375e-05
3.42753e-07
8.42681e-05
3.28189e-07
8.43007e-05
3.12978e-07
8.4335e-05
2.95991e-07
2.76421e-07
8.43708e-05
8.57963e-05
4.61417e-08
8.5806e-05
1.56898e-07
8.5826e-05
2.60283e-07
8.58525e-05
3.44801e-07
8.58834e-05
4.12929e-07
8.59168e-05
4.65248e-07
8.59512e-05
5.03619e-07
8.5986e-05
5.30701e-07
8.60209e-05
5.48484e-07
8.60554e-05
5.58592e-07
8.60895e-05
5.62459e-07
8.61231e-05
5.61278e-07
8.61559e-05
5.56034e-07
8.61881e-05
5.47552e-07
8.62195e-05
5.36528e-07
8.62502e-05
5.23544e-07
8.62802e-05
5.09082e-07
8.63096e-05
4.93545e-07
8.63384e-05
4.77266e-07
8.63666e-05
4.60522e-07
8.63944e-05
4.43538e-07
8.64218e-05
4.26501e-07
8.64489e-05
4.09563e-07
8.64758e-05
3.92841e-07
8.65027e-05
3.76421e-07
8.65297e-05
3.60349e-07
8.65572e-05
3.44614e-07
8.65853e-05
3.29122e-07
8.66144e-05
3.13679e-07
8.66447e-05
2.97913e-07
8.66763e-05
2.81336e-07
8.67091e-05
2.63206e-07
2.42982e-07
8.67425e-05
8.825e-05
4.61132e-08
8.82599e-05
1.46995e-07
8.8279e-05
2.41227e-07
8.83041e-05
3.19686e-07
8.83336e-05
3.83437e-07
8.83657e-05
4.33106e-07
8.83993e-05
4.70063e-07
8.84335e-05
4.96449e-07
8.8468e-05
5.14037e-07
8.85023e-05
5.243e-07
8.85362e-05
5.28549e-07
8.85696e-05
5.27897e-07
8.86023e-05
5.23272e-07
8.86344e-05
5.15461e-07
8.86658e-05
5.05128e-07
8.86965e-05
4.9283e-07
8.87266e-05
4.79031e-07
8.8756e-05
4.64119e-07
8.87849e-05
4.48415e-07
8.88132e-05
4.32183e-07
8.88411e-05
4.15638e-07
8.88687e-05
3.98956e-07
8.88959e-05
3.82272e-07
8.89231e-05
3.65688e-07
8.89503e-05
3.49269e-07
8.89776e-05
3.33032e-07
8.90052e-05
3.16946e-07
8.90335e-05
3.00901e-07
8.90624e-05
2.84709e-07
8.90923e-05
2.68064e-07
8.9123e-05
2.50588e-07
8.91544e-05
2.31799e-07
2.11373e-07
8.9186e-05
9.07727e-05
4.47067e-08
9.07826e-05
1.37121e-07
9.08007e-05
2.23071e-07
9.08248e-05
2.95675e-07
9.08531e-05
3.55127e-07
9.08842e-05
4.02e-07
9.09169e-05
4.37336e-07
9.09505e-05
4.62839e-07
9.09845e-05
4.8006e-07
9.10185e-05
4.90326e-07
9.10522e-05
4.9483e-07
9.10855e-05
4.94602e-07
9.11182e-05
4.90514e-07
9.11504e-05
4.83307e-07
9.11819e-05
4.73612e-07
9.12128e-05
4.61956e-07
9.1243e-05
4.48786e-07
9.12727e-05
4.3447e-07
9.13018e-05
4.19315e-07
9.13304e-05
4.03574e-07
9.13586e-05
3.8745e-07
9.13864e-05
3.71107e-07
9.1414e-05
3.54667e-07
9.14415e-05
3.38219e-07
9.14689e-05
3.2181e-07
9.14965e-05
3.05447e-07
9.15244e-05
2.89085e-07
9.15527e-05
2.72622e-07
9.15815e-05
2.55891e-07
9.16109e-05
2.38658e-07
9.16408e-05
2.20646e-07
9.16711e-05
2.01553e-07
1.81209e-07
9.17013e-05
9.33669e-05
4.24672e-08
9.33767e-05
1.27298e-07
9.33941e-05
2.05734e-07
9.3417e-05
2.72729e-07
9.34441e-05
3.27984e-07
9.34742e-05
3.71964e-07
9.3506e-05
4.05487e-07
9.35389e-05
4.29914e-07
9.35724e-05
4.46588e-07
9.3606e-05
4.56698e-07
9.36396e-05
4.61321e-07
9.36728e-05
4.61403e-07
9.37055e-05
4.57756e-07
9.37377e-05
4.51074e-07
9.37694e-05
4.4195e-07
9.38005e-05
4.30884e-07
9.3831e-05
4.18296e-07
9.38609e-05
4.0454e-07
9.38903e-05
3.89907e-07
9.39192e-05
3.74634e-07
9.39478e-05
3.58915e-07
9.3976e-05
3.42902e-07
9.40039e-05
3.26706e-07
9.40318e-05
3.10406e-07
9.40595e-05
2.94039e-07
9.40874e-05
2.77605e-07
9.41154e-05
2.61063e-07
9.41437e-05
2.44322e-07
9.41723e-05
2.27251e-07
9.42013e-05
2.09676e-07
9.42306e-05
1.91411e-07
9.42598e-05
1.72271e-07
1.5219e-07
9.42889e-05
9.60348e-05
3.97761e-08
9.60445e-05
1.17614e-07
9.6061e-05
1.89161e-07
9.6083e-05
2.50771e-07
9.61091e-05
3.01916e-07
9.61381e-05
3.42939e-07
9.61691e-05
3.74499e-07
9.62013e-05
3.97689e-07
9.62342e-05
4.1366e-07
9.62675e-05
4.23466e-07
9.63007e-05
4.28075e-07
9.63338e-05
4.28352e-07
9.63665e-05
4.25045e-07
9.63987e-05
4.18802e-07
9.64305e-05
4.10175e-07
9.64618e-05
3.99636e-07
9.64925e-05
3.87582e-07
9.65227e-05
3.74345e-07
9.65524e-05
3.602e-07
9.65816e-05
3.45373e-07
9.66105e-05
3.30044e-07
9.66391e-05
3.14355e-07
9.66674e-05
2.9841e-07
9.66955e-05
2.82278e-07
9.67235e-05
2.65994e-07
9.67516e-05
2.49558e-07
9.67797e-05
2.32934e-07
9.6808e-05
2.16053e-07
9.68364e-05
1.98816e-07
9.6865e-05
1.81106e-07
9.68936e-05
1.62803e-07
9.6922e-05
1.43806e-07
1.2411e-07
9.69501e-05
9.87786e-05
3.6861e-08
9.87881e-05
1.08119e-07
9.8804e-05
1.73286e-07
9.88251e-05
2.29728e-07
9.88501e-05
2.7685e-07
9.88782e-05
3.14884e-07
9.89083e-05
3.44366e-07
9.89398e-05
3.66178e-07
9.89722e-05
3.813e-07
9.9005e-05
3.90664e-07
9.90379e-05
3.95133e-07
9.90708e-05
3.95492e-07
9.91034e-05
3.92426e-07
9.91357e-05
3.86535e-07
9.91675e-05
3.78333e-07
9.91989e-05
3.68259e-07
9.92298e-05
3.56686e-07
9.92602e-05
3.43927e-07
9.92902e-05
3.30239e-07
9.93197e-05
3.15834e-07
9.93489e-05
3.00884e-07
9.93777e-05
2.85518e-07
9.94063e-05
2.69836e-07
9.94347e-05
2.53901e-07
9.94629e-05
2.37747e-07
9.94911e-05
2.21377e-07
9.95192e-05
2.04769e-07
9.95474e-05
1.87874e-07
9.95756e-05
1.70625e-07
9.96038e-05
1.52947e-07
9.96318e-05
1.34774e-07
9.96596e-05
1.16057e-07
9.68307e-08
9.96868e-05
0.000101601
3.38615e-08
0.00010161
9.8854e-08
0.000101625
1.58053e-07
0.000101645
2.0953e-07
0.00010167
2.52713e-07
0.000101697
2.87743e-07
0.000101726
3.15056e-07
0.000101757
3.35371e-07
0.000101789
3.49518e-07
0.000101821
3.58313e-07
0.000101854
3.62526e-07
0.000101886
3.62859e-07
0.000101919
3.5994e-07
0.000101951
3.54319e-07
0.000101983
3.4647e-07
0.000102014
3.36801e-07
0.000102045
3.25661e-07
0.000102076
3.13339e-07
0.000102106
3.00079e-07
0.000102136
2.86078e-07
0.000102165
2.71497e-07
0.000102194
2.56459e-07
0.000102223
2.41056e-07
0.000102252
2.25351e-07
0.00010228
2.09377e-07
0.000102308
1.93146e-07
0.000102336
1.76647e-07
0.000102364
1.5985e-07
0.000102392
1.42718e-07
0.00010242
1.2521e-07
0.000102447
1.07295e-07
0.000102475
8.8962e-08
7.02661e-08
0.000102501
0.000104503
3.08592e-08
0.000104512
8.98448e-08
0.000104527
1.43409e-07
0.000104546
1.9011e-07
0.00010457
2.29435e-07
0.000104596
2.6146e-07
0.000104625
2.86536e-07
0.000104655
3.05253e-07
0.000104686
3.18313e-07
0.000104718
3.26426e-07
0.00010475
3.30272e-07
0.000104782
3.30481e-07
0.000104815
3.2762e-07
0.000104847
3.2219e-07
0.000104879
3.14627e-07
0.00010491
3.05307e-07
0.000104941
2.94553e-07
0.000104972
2.82634e-07
0.000105002
2.69777e-07
0.000105032
2.56166e-07
0.000105062
2.41951e-07
0.000105091
2.27249e-07
0.00010512
2.12148e-07
0.000105149
1.96708e-07
0.000105177
1.80967e-07
0.000105205
1.64945e-07
0.000105233
1.4864e-07
0.000105261
1.32044e-07
0.000105289
1.15139e-07
0.000105316
9.79116e-08
0.000105343
8.03572e-08
0.000105369
6.24869e-08
4.4367e-08
0.000105395
0.000107489
2.78997e-08
0.000107498
8.1103e-08
0.000107512
1.29307e-07
0.000107531
1.71403e-07
0.000107553
2.06951e-07
0.000107578
2.35977e-07
0.000107606
2.58765e-07
0.000107636
2.758e-07
0.000107666
2.87674e-07
0.000107698
2.95003e-07
0.00010773
2.98383e-07
0.000107762
2.98376e-07
0.000107794
2.9549e-07
0.000107826
2.90178e-07
0.000107858
2.82839e-07
0.000107889
2.73817e-07
0.00010792
2.63408e-07
0.000107951
2.51861e-07
0.000107981
2.39386e-07
0.000108011
2.26155e-07
0.000108041
2.12309e-07
0.00010807
1.97956e-07
0.000108099
1.83182e-07
0.000108128
1.68047e-07
0.000108156
1.52593e-07
0.000108185
1.36846e-07
0.000108212
1.20816e-07
0.00010824
1.04509e-07
0.000108267
8.79258e-08
0.000108294
7.10713e-08
0.00010832
5.39592e-08
0.000108346
3.66144e-08
1.91079e-08
0.000108371
0.00011056
2.50069e-08
0.000110568
7.26298e-08
0.000110582
1.15705e-07
0.0001106
1.53351e-07
0.000110622
1.85195e-07
0.000110646
2.11235e-07
0.000110673
2.31697e-07
0.000110702
2.4698e-07
0.000110732
2.57584e-07
0.000110763
2.64038e-07
0.000110795
2.66863e-07
0.000110827
2.66555e-07
0.000110859
2.63568e-07
0.00011089
2.58309e-07
0.000110922
2.51137e-07
0.000110954
2.42366e-07
0.000110985
2.32265e-07
0.000111016
2.21065e-07
0.000111046
2.08957e-07
0.000111076
1.96101e-07
0.000111106
1.82629e-07
0.000111135
1.68643e-07
0.000111164
1.54225e-07
0.000111193
1.39437e-07
0.000111221
1.24323e-07
0.000111249
1.08914e-07
0.000111276
9.32326e-08
0.000111304
7.72942e-08
0.00011133
6.11139e-08
0.000111357
4.47097e-08
0.000111383
2.81073e-08
0.000111408
1.134e-08
-5.52082e-09
0.000111433
0.000113718
2.21912e-08
0.000113727
6.44189e-08
0.00011374
1.0256e-07
0.000113757
1.35894e-07
0.000113778
1.64107e-07
0.000113802
1.87178e-07
0.000113829
2.05285e-07
0.000113857
2.18759e-07
0.000113886
2.28019e-07
0.000113917
2.33518e-07
0.000113948
2.35708e-07
0.00011398
2.35024e-07
0.000114011
2.31867e-07
0.000114043
2.26599e-07
0.000114075
2.19544e-07
0.000114106
2.10983e-07
0.000114137
2.0116e-07
0.000114168
1.90285e-07
0.000114198
1.78534e-07
0.000114228
1.66054e-07
0.000114258
1.52966e-07
0.000114287
1.39368e-07
0.000114316
1.25339e-07
0.000114345
1.10939e-07
0.000114373
9.62167e-08
0.000114401
8.12076e-08
0.000114428
6.59411e-08
0.000114455
5.04423e-08
0.000114481
3.47355e-08
0.000114507
1.8848e-08
0.000114532
2.81286e-09
0.000114557
-1.33325e-08
-2.95179e-08
0.000114581
0.000116967
1.94553e-08
0.000116975
5.64579e-08
0.000116988
8.98339e-08
0.000117005
1.18978e-07
0.000117025
1.43626e-07
0.000117049
1.63746e-07
0.000117074
1.79478e-07
0.000117102
1.91095e-07
0.000117131
1.98948e-07
0.000117161
2.03422e-07
0.000117192
2.04907e-07
0.000117223
2.0378e-07
0.000117255
2.00392e-07
0.000117286
1.95063e-07
0.000117318
1.8808e-07
0.000117349
1.79694e-07
0.00011738
1.70125e-07
0.000117411
1.5956e-07
0.000117441
1.4816e-07
0.000117471
1.36059e-07
0.000117501
1.2337e-07
0.00011753
1.10184e-07
0.000117559
9.65772e-08
0.000117587
8.26088e-08
0.000117615
6.83284e-08
0.000117642
5.37762e-08
0.000117669
3.89867e-08
0.000117696
2.39912e-08
0.000117722
8.82065e-09
0.000117747
-6.49197e-09
0.000117772
-2.19095e-08
0.000117796
-3.73927e-08
-5.28743e-08
0.000117819
0.000120309
1.67971e-08
0.000120316
4.8731e-08
0.000120329
7.74881e-08
0.000120345
1.02551e-07
0.000120365
1.23694e-07
0.000120388
1.40881e-07
0.000120413
1.54223e-07
0.00012044
1.63944e-07
0.000120469
1.70336e-07
0.000120499
1.73726e-07
0.000120529
1.74444e-07
0.00012056
1.72814e-07
0.000120591
1.69142e-07
0.000120623
1.63707e-07
0.000120654
1.56758e-07
0.000120685
1.48519e-07
0.000120716
1.39184e-07
0.000120747
1.28919e-07
0.000120777
1.1787e-07
0.000120807
1.06158e-07
0.000120836
9.38858e-08
0.000120866
8.1139e-08
0.000120894
6.79888e-08
0.000120922
5.44944e-08
0.00012095
4.07055e-08
0.000120977
2.66645e-08
0.000121004
1.24094e-08
0.00012103
-2.02454e-09
0.000121055
-1.66024e-08
0.00012108
-3.12879e-08
0.000121104
-4.60421e-08
0.000121127
-6.08258e-08
-7.55749e-08
0.00012115
0.000123746
1.42124e-08
0.000123753
4.122e-08
0.000123765
6.5486e-08
0.000123781
8.65607e-08
0.000123801
1.04252e-07
0.000123823
1.18524e-07
0.000123848
1.29463e-07
0.000123875
1.37254e-07
0.000123903
1.42141e-07
0.000123932
1.44394e-07
0.000123962
1.44292e-07
0.000123993
1.4211e-07
0.000124024
1.38109e-07
0.000124055
1.32529e-07
0.000124086
1.25585e-07
0.000124117
1.17472e-07
0.000124148
1.08357e-07
0.000124179
9.83889e-08
0.000124209
8.76952e-08
0.000124239
7.63848e-08
0.000124268
6.4551e-08
0.000124297
5.22725e-08
0.000124325
3.96161e-08
0.000124353
2.66387e-08
0.00012438
1.33893e-08
0.000124407
-8.86608e-11
0.000124433
-1.37554e-08
0.000124459
-2.75738e-08
0.000124484
-4.15069e-08
0.000124508
-5.55172e-08
0.000124532
-6.95656e-08
0.000124554
-8.36139e-08
-9.76022e-08
0.000124576
0.000127281
1.16949e-08
0.000127288
3.39047e-08
0.0001273
5.379e-08
0.000127316
7.0956e-08
0.000127335
8.524e-08
0.000127357
9.66094e-08
0.000127381
1.05135e-07
0.000127407
1.10969e-07
0.000127435
1.14311e-07
0.000127464
1.15385e-07
0.000127494
1.14419e-07
0.000127524
1.11644e-07
0.000127555
1.07278e-07
0.000127586
1.01524e-07
0.000127617
9.45622e-08
0.000127648
8.65592e-08
0.000127679
7.76592e-08
0.000127709
6.79891e-08
0.000127739
5.76606e-08
0.000127769
4.67694e-08
0.000127798
3.53988e-08
0.000127827
2.36203e-08
0.000127855
1.14956e-08
0.000127882
-9.21421e-10
0.000127909
-1.35843e-08
0.000127936
-2.6449e-08
0.000127961
-3.94764e-08
0.000127986
-5.26285e-08
0.000128011
-6.5868e-08
0.000128034
-7.91577e-08
0.000128057
-9.24595e-08
0.00012808
-1.05737e-07
-1.18934e-07
0.000128101
0.000130917
9.24011e-09
0.000130924
2.6769e-08
0.000130936
4.23703e-08
0.000130951
5.56938e-08
0.00013097
6.66043e-08
0.000130991
7.50785e-08
0.000131015
8.11772e-08
0.000131041
8.50262e-08
0.000131069
8.67881e-08
0.000131097
8.66465e-08
0.000131127
8.47783e-08
0.000131157
8.1375e-08
0.000131188
7.66175e-08
0.000131219
7.06681e-08
0.00013125
6.36745e-08
0.000131281
5.57762e-08
0.000131311
4.70919e-08
0.000131341
3.77285e-08
0.000131371
2.77811e-08
0.000131401
1.7331e-08
0.00013143
6.45269e-09
0.000131458
-4.7909e-09
0.000131486
-1.6344e-08
0.000131513
-2.81572e-08
0.00013154
-4.01858e-08
0.000131566
-5.23886e-08
0.000131591
-6.4727e-08
0.000131615
-7.71639e-08
0.000131639
-8.96631e-08
0.000131662
-1.02189e-07
0.000131685
-1.14704e-07
0.000131706
-1.27176e-07
-1.39552e-07
0.000131727
0.000134658
6.83579e-09
0.000134665
1.9784e-08
0.000134676
3.11795e-08
0.000134691
4.07104e-08
0.000134709
4.82706e-08
0.00013473
5.38516e-08
0.000134754
5.75101e-08
0.00013478
5.93518e-08
0.000134807
5.95069e-08
0.000134835
5.81257e-08
0.000134865
5.53284e-08
0.000134895
5.12733e-08
0.000134925
4.61038e-08
0.000134956
3.99447e-08
0.000134987
3.29118e-08
0.000135018
2.51205e-08
0.000135048
1.66583e-08
0.000135078
7.6146e-09
0.000135108
-1.92975e-09
0.000135137
-1.19142e-08
0.000135166
-2.2268e-08
0.000135194
-3.29399e-08
0.000135222
-4.38803e-08
0.000135248
-5.50449e-08
0.000135275
-6.63926e-08
0.0001353
-7.78851e-08
0.000135325
-8.94861e-08
0.000135349
-1.0116e-07
0.000135372
-1.12874e-07
0.000135394
-1.24592e-07
0.000135416
-1.36281e-07
0.000135437
-1.4791e-07
-1.59432e-07
0.000135457
0.000138505
4.49957e-09
0.000138511
1.29691e-08
0.000138522
2.02283e-08
0.000138537
2.59956e-08
0.000138555
3.02026e-08
0.000138576
3.28673e-08
0.0001386
3.40527e-08
0.000138625
3.38519e-08
0.000138652
3.23707e-08
0.000138681
2.9721e-08
0.00013871
2.59584e-08
0.00013874
2.12404e-08
0.00013877
1.5659e-08
0.000138801
9.29405e-09
0.000138832
2.21814e-09
0.000138862
-5.4477e-09
0.000138893
-1.36677e-08
0.000138923
-2.23672e-08
0.000138952
-3.14844e-08
0.000138981
-4.09652e-08
0.00013901
-5.07573e-08
0.000139038
-6.08159e-08
0.000139065
-7.10993e-08
0.000139091
-8.15685e-08
0.000139117
-9.21872e-08
0.000139142
-1.02921e-07
0.000139166
-1.13736e-07
0.00013919
-1.246e-07
0.000139213
-1.35482e-07
0.000139234
-1.46351e-07
0.000139255
-1.57175e-07
0.000139275
-1.67926e-07
-1.78561e-07
0.000139294
0.000142462
2.14841e-09
0.000142468
6.21742e-09
0.000142479
9.39773e-09
0.000142494
1.14308e-08
0.000142512
1.22922e-08
0.000142532
1.20347e-08
0.000142556
1.07311e-08
0.000142581
8.46207e-09
0.000142608
5.32303e-09
0.000142637
1.45501e-09
0.000142666
-3.31459e-09
0.000142696
-8.72472e-09
0.000142726
-1.4735e-08
0.000142757
-2.13077e-08
0.000142787
-2.83928e-08
0.000142818
-3.59354e-08
0.000142848
-4.3896e-08
0.000142878
-5.22268e-08
0.000142907
-6.08834e-08
0.000142936
-6.98261e-08
0.000142964
-7.90166e-08
0.000142992
-8.8419e-08
0.000143019
-9.79994e-08
0.000143045
-1.07726e-07
0.00014307
-1.17566e-07
0.000143095
-1.27492e-07
0.000143119
-1.37473e-07
0.000143142
-1.47479e-07
0.000143164
-1.57484e-07
0.000143185
-1.67459e-07
0.000143205
-1.77375e-07
0.000143224
-1.87208e-07
-1.96919e-07
0.000143243
0.000146531
3.38716e-11
0.000146538
-2.03984e-10
0.000146548
-1.09658e-09
0.000146563
-2.88004e-09
0.00014658
-5.48358e-09
0.000146601
-8.77879e-09
0.000146625
-1.26598e-08
0.00014665
-1.70443e-08
0.000146677
-2.18776e-08
0.000146706
-2.71231e-08
0.000146735
-3.28016e-08
0.000146766
-3.88446e-08
0.000146796
-4.52423e-08
0.000146827
-5.19864e-08
0.000146857
-5.90587e-08
0.000146888
-6.64343e-08
0.000146918
-7.40919e-08
0.000146948
-8.2008e-08
0.000146977
-9.01572e-08
0.000147006
-9.85142e-08
0.000147034
-1.07053e-07
0.000147061
-1.15748e-07
0.000147088
-1.24574e-07
0.000147114
-1.33505e-07
0.000147138
-1.42516e-07
0.000147163
-1.51583e-07
0.000147186
-1.60679e-07
0.000147208
-1.6978e-07
0.000147229
-1.78862e-07
0.00014725
-1.87899e-07
0.000147269
-1.96869e-07
0.000147288
-2.05748e-07
-2.14502e-07
0.000147306
0.000150718
-2.49465e-09
0.000150725
-6.86872e-09
0.000150735
-1.16949e-08
0.00015075
-1.71731e-08
0.000150767
-2.31608e-08
0.000150788
-2.94655e-08
0.000150811
-3.59358e-08
0.000150837
-4.24754e-08
0.000150864
-4.9044e-08
0.000150892
-5.56306e-08
0.000150922
-6.22759e-08
0.000150952
-6.89924e-08
0.000150983
-7.5798e-08
0.000151013
-8.27161e-08
0.000151044
-8.97634e-08
0.000151075
-9.69483e-08
0.000151105
-1.04275e-07
0.000151135
-1.11743e-07
0.000151164
-1.19346e-07
0.000151192
-1.27073e-07
0.00015122
-1.34913e-07
0.000151247
-1.42851e-07
0.000151274
-1.5087e-07
0.000151299
-1.58953e-07
0.000151324
-1.67081e-07
0.000151347
-1.75235e-07
0.00015137
-1.83395e-07
0.000151392
-1.91539e-07
0.000151412
-1.99648e-07
0.000151432
-2.077e-07
0.000151451
-2.15675e-07
0.000151469
-2.23554e-07
-2.31305e-07
0.000151486
0.000155023
-3.74331e-09
0.000155028
-1.22005e-08
0.000155038
-2.14002e-08
0.000155052
-3.12519e-08
0.00015507
-4.12123e-08
0.000155091
-5.09104e-08
0.000155116
-6.01568e-08
0.000155142
-6.8894e-08
0.00015517
-7.71488e-08
0.0001552
-8.49866e-08
0.00015523
-9.24974e-08
0.000155261
-9.97589e-08
0.000155292
-1.06843e-07
0.000155323
-1.13816e-07
0.000155354
-1.20732e-07
0.000155384
-1.27629e-07
0.000155415
-1.34537e-07
0.000155444
-1.41475e-07
0.000155473
-1.48456e-07
0.000155502
-1.55483e-07
0.00015553
-1.62558e-07
0.000155556
-1.69675e-07
0.000155582
-1.76827e-07
0.000155607
-1.84005e-07
0.000155631
-1.91194e-07
0.000155655
-1.98382e-07
0.000155677
-2.05554e-07
0.000155698
-2.12693e-07
0.000155718
-2.19783e-07
0.000155737
-2.26808e-07
0.000155755
-2.33749e-07
0.000155772
-2.40593e-07
-2.47312e-07
0.000155788
0.000159455
-7.71689e-09
0.000159462
-1.93958e-08
0.000159472
-3.18225e-08
0.000159486
-4.49516e-08
0.000159503
-5.83035e-08
0.000159523
-7.12672e-08
0.000159547
-8.34173e-08
0.000159572
-9.45835e-08
0.0001596
-1.04773e-07
0.000159629
-1.14078e-07
0.000159659
-1.22633e-07
0.00015969
-1.30574e-07
0.000159721
-1.38031e-07
0.000159752
-1.45116e-07
0.000159784
-1.51925e-07
0.000159815
-1.58534e-07
0.000159845
-1.65003e-07
0.000159875
-1.71377e-07
0.000159904
-1.7769e-07
0.000159933
-1.83964e-07
0.00015996
-1.90214e-07
0.000159987
-1.96448e-07
0.000160013
-2.02669e-07
0.000160038
-2.08874e-07
0.000160062
-2.1506e-07
0.000160084
-2.21217e-07
0.000160106
-2.27338e-07
0.000160127
-2.3341e-07
0.000160147
-2.39422e-07
0.000160165
-2.45361e-07
0.000160183
-2.51212e-07
0.000160199
-2.56964e-07
-2.62594e-07
0.000160214
0.000164003
-5.0965e-09
0.000164005
-2.13009e-08
0.000164014
-4.02325e-08
0.000164029
-5.98342e-08
0.000164049
-7.84653e-08
0.000164073
-9.53684e-08
0.0001641
-1.10364e-07
0.000164129
-1.23558e-07
0.000164159
-1.35155e-07
0.000164191
-1.45388e-07
0.000164222
-1.54492e-07
0.000164255
-1.62682e-07
0.000164287
-1.70147e-07
0.000164319
-1.77045e-07
0.00016435
-1.83504e-07
0.000164381
-1.89628e-07
0.000164412
-1.955e-07
0.000164442
-2.01182e-07
0.000164471
-2.06721e-07
0.000164499
-2.12154e-07
0.000164526
-2.17505e-07
0.000164552
-2.22791e-07
0.000164578
-2.28022e-07
0.000164602
-2.33203e-07
0.000164625
-2.38337e-07
0.000164648
-2.4342e-07
0.000164669
-2.48448e-07
0.000164689
-2.53415e-07
0.000164708
-2.58312e-07
0.000164725
-2.6313e-07
0.000164742
-2.67861e-07
0.000164758
-2.72495e-07
-2.77013e-07
0.000164772
0.000168701
-1.46076e-08
0.000168709
-2.94847e-08
0.000168717
-4.81758e-08
0.000168727
-6.97211e-08
0.000168741
-9.24618e-08
0.00016876
-1.14027e-07
0.000168783
-1.33183e-07
0.000168809
-1.49716e-07
0.000168838
-1.63844e-07
0.000168868
-1.75896e-07
0.0001689
-1.86216e-07
0.000168932
-1.95127e-07
0.000168965
-2.02913e-07
0.000168998
-2.0981e-07
0.00016903
-2.16014e-07
0.000169062
-2.2168e-07
0.000169094
-2.26931e-07
0.000169125
-2.31863e-07
0.000169154
-2.3655e-07
0.000169183
-2.41048e-07
0.000169211
-2.45397e-07
0.000169238
-2.49629e-07
0.000169264
-2.53764e-07
0.000169288
-2.57818e-07
0.000169312
-2.61798e-07
0.000169334
-2.65709e-07
0.000169355
-2.69551e-07
0.000169375
-2.73324e-07
0.000169394
-2.77024e-07
0.000169411
-2.80644e-07
0.000169428
-2.8418e-07
0.000169443
-2.87624e-07
-2.90963e-07
0.000169457
0.000173491
5.58882e-09
0.000173485
-2.31644e-08
0.000173495
-5.83376e-08
0.000173517
-9.16406e-08
0.000173545
-1.20992e-07
0.000173577
-1.45692e-07
0.00017361
-1.66389e-07
0.000173644
-1.83665e-07
0.000173678
-1.9807e-07
0.000173713
-2.10102e-07
0.000173747
-2.20202e-07
0.00017378
-2.28754e-07
0.000173813
-2.36071e-07
0.000173846
-2.42408e-07
0.000173878
-2.47968e-07
0.000173909
-2.52917e-07
0.00017394
-2.57383e-07
0.000173969
-2.61467e-07
0.000173998
-2.6525e-07
0.000174026
-2.68793e-07
0.000174052
-2.72143e-07
0.000174078
-2.75336e-07
0.000174103
-2.78398e-07
0.000174126
-2.81349e-07
0.000174149
-2.84203e-07
0.00017417
-2.86967e-07
0.00017419
-2.89648e-07
0.000174209
-2.92249e-07
0.000174227
-2.94768e-07
0.000174243
-2.97205e-07
0.000174259
-2.99556e-07
0.000174273
-3.01818e-07
-3.0398e-07
0.000174286
0.000178498
-2.40179e-08
0.000178501
-2.60373e-08
0.00017849
-4.7594e-08
0.000178482
-8.29346e-08
0.000178484
-1.23687e-07
0.000178498
-1.59645e-07
0.000178521
-1.88839e-07
0.000178549
-2.11913e-07
0.000178581
-2.30204e-07
0.000178616
-2.44713e-07
0.000178652
-2.56241e-07
0.000178688
-2.65451e-07
0.000178725
-2.7287e-07
0.000178762
-2.78907e-07
0.000178798
-2.83879e-07
0.000178833
-2.88031e-07
0.000178867
-2.91549e-07
0.0001789
-2.94577e-07
0.000178932
-2.97224e-07
0.000178963
-2.99573e-07
0.000178992
-3.01687e-07
0.000179021
-3.03613e-07
0.000179048
-3.05387e-07
0.000179073
-3.07034e-07
0.000179098
-3.08575e-07
0.000179121
-3.10022e-07
0.000179142
-3.11385e-07
0.000179163
-3.12671e-07
0.000179182
-3.13882e-07
0.0001792
-3.15021e-07
0.000179216
-3.16088e-07
0.000179232
-3.17084e-07
-3.18001e-07
0.000179246
0.000183487
5.68356e-08
0.000183465
-4.05515e-09
0.000183501
-8.35359e-08
0.000183553
-1.35902e-07
0.000183605
-1.75589e-07
0.000183652
-2.06422e-07
0.000183694
-2.30844e-07
0.000183733
-2.50707e-07
0.000183769
-2.66738e-07
0.000183804
-2.79621e-07
0.000183838
-2.9001e-07
0.000183871
-2.98414e-07
0.000183903
-3.05225e-07
0.000183935
-3.10758e-07
0.000183967
-3.15264e-07
0.000183998
-3.18941e-07
0.000184028
-3.21948e-07
0.000184058
-3.2441e-07
0.000184087
-3.26425e-07
0.000184116
-3.28074e-07
0.000184143
-3.29418e-07
0.00018417
-3.30508e-07
0.000184196
-3.31383e-07
0.000184221
-3.32075e-07
0.000184245
-3.32609e-07
0.000184268
-3.33004e-07
0.00018429
-3.33276e-07
0.000184311
-3.33437e-07
0.000184331
-3.33494e-07
0.000184349
-3.33454e-07
0.000184366
-3.33321e-07
0.000184382
-3.33095e-07
-3.32778e-07
0.000184397
0.000188861
7.79933e-09
0.000188796
6.06479e-08
0.000188711
1.49778e-09
0.000188648
-7.25948e-08
0.00018863
-1.57442e-07
0.000188644
-2.2051e-07
0.000188677
-2.63814e-07
0.000188721
-2.94421e-07
0.00018877
-3.16543e-07
0.000188824
-3.32774e-07
0.000188878
-3.44758e-07
0.000188933
-3.5362e-07
0.000188988
-3.60157e-07
0.000189043
-3.64939e-07
0.000189096
-3.68378e-07
0.000189148
-3.70777e-07
0.000189198
-3.7236e-07
0.000189247
-3.73298e-07
0.000189294
-3.73719e-07
0.00018934
-3.73723e-07
0.000189384