/*--------------------------------*- C++ -*----------------------------------*\
| =========                 |                                                 |
| \\      /  F ield         | OpenFOAM: The Open Source CFD Toolbox           |
|  \\    /   O peration     | Version:  2.1.1                                 |
|   \\  /    A nd           | Web:      www.OpenFOAM.org                      |
|    \\/     M anipulation  |                                                 |
\*---------------------------------------------------------------------------*/
FoamFile
{
    version     2.0;
    format      ascii;
    class       volVectorField;
    location    "0.19";
    object      U;
}
// * * * * * * * * * * * * * * * * * * * * * * * * * * * * * * * * * * * * * //

dimensions      [0 1 -1 0 0 0 0];

internalField   nonuniform List<vector> 
6820
(
(8.34337 -0.360076 0)
(8.40109 -0.247151 0)
(8.35607 -0.11529 0)
(8.24775 -0.0365533 0)
(8.11928 0.00601385 0)
(7.98581 0.0278776 0)
(7.85366 0.0386496 0)
(7.72621 0.0433515 0)
(7.60487 0.0446248 0)
(7.4902 0.0439266 0)
(7.38242 0.0420986 0)
(7.28156 0.0396451 0)
(7.18751 0.0368775 0)
(7.10004 0.0339914 0)
(7.01888 0.0311106 0)
(6.94371 0.0283127 0)
(6.87417 0.0256451 0)
(6.80991 0.0231348 0)
(6.75056 0.0207955 0)
(6.69577 0.0186317 0)
(6.64519 0.0166428 0)
(6.59848 0.0148245 0)
(6.55531 0.0131721 0)
(6.51539 0.0116812 0)
(6.47839 0.010351 0)
(6.444 0.0091882 0)
(6.41189 0.00821203 0)
(6.38163 0.00747554 0)
(6.35274 0.00708487 0)
(6.32423 0.00730918 0)
(6.29462 0.00895277 0)
(6.26064 0.0129219 0)
(6.21349 0.0291858 0)
(8.32138 0.166252 0)
(8.28709 0.190007 0)
(8.28543 0.132163 0)
(8.31739 0.0958686 0)
(8.36168 0.0750348 0)
(8.40172 0.0623748 0)
(8.43279 0.0548941 0)
(8.45486 0.0503734 0)
(8.46877 0.0474713 0)
(8.47554 0.0454745 0)
(8.4762 0.0439879 0)
(8.47169 0.0427736 0)
(8.46285 0.0416928 0)
(8.4504 0.0406683 0)
(8.43497 0.0396597 0)
(8.41713 0.0386482 0)
(8.39735 0.0376278 0)
(8.37605 0.0365993 0)
(8.35359 0.0355677 0)
(8.33027 0.0345395 0)
(8.30635 0.0335226 0)
(8.28204 0.0325252 0)
(8.25752 0.0315572 0)
(8.23294 0.0306304 0)
(8.20843 0.0297619 0)
(8.18408 0.0289766 0)
(8.15998 0.0283184 0)
(8.13617 0.0278628 0)
(8.11288 0.0277524 0)
(8.08988 0.0283128 0)
(8.0692 0.0299985 0)
(8.04846 0.0347666 0)
(8.04743 0.0428221 0)
(8.3225 -0.0608832 0)
(8.31397 -0.0832742 0)
(8.33049 -0.0540846 0)
(8.34429 -0.0202826 0)
(8.35315 0.00243315 0)
(8.36215 0.0165652 0)
(8.37185 0.0258104 0)
(8.38185 0.0320339 0)
(8.39166 0.0362593 0)
(8.40089 0.039132 0)
(8.4093 0.0410466 0)
(8.41676 0.0422471 0)
(8.42321 0.0429076 0)
(8.42862 0.0431591 0)
(8.43302 0.043101 0)
(8.43646 0.0428097 0)
(8.43897 0.0423446 0)
(8.44063 0.0417523 0)
(8.4415 0.0410698 0)
(8.44164 0.0403265 0)
(8.44113 0.0395467 0)
(8.44002 0.0387505 0)
(8.43837 0.0379566 0)
(8.43624 0.0371832 0)
(8.43368 0.0364516 0)
(8.43074 0.0357879 0)
(8.42746 0.0352363 0)
(8.42387 0.0348438 0)
(8.42009 0.0347547 0)
(8.41615 0.034956 0)
(8.41255 0.0361131 0)
(8.40931 0.0365846 0)
(8.40775 0.0400415 0)
(8.33365 0.0145677 0)
(8.32976 0.047713 0)
(8.32735 0.0539945 0)
(8.32867 0.0465854 0)
(8.33454 0.0410945 0)
(8.34204 0.038599 0)
(8.3495 0.0377968 0)
(8.35669 0.0377598 0)
(8.36363 0.0379872 0)
(8.37031 0.0382585 0)
(8.37668 0.0384753 0)
(8.38273 0.0385963 0)
(8.38845 0.0386119 0)
(8.3938 0.0385255 0)
(8.3988 0.0383455 0)
(8.40342 0.0380828 0)
(8.40769 0.0377499 0)
(8.41161 0.0373592 0)
(8.41519 0.036923 0)
(8.41846 0.0364529 0)
(8.42142 0.0359603 0)
(8.42411 0.0354566 0)
(8.42653 0.0349541 0)
(8.4287 0.034467 0)
(8.43066 0.0340137 0)
(8.43241 0.0336182 0)
(8.43399 0.033318 0)
(8.43543 0.033158 0)
(8.43682 0.0332241 0)
(8.43824 0.0335651 0)
(8.4401 0.0343575 0)
(8.44249 0.0353474 0)
(8.44668 0.0368805 0)
(8.3302 -0.0053054 0)
(8.32721 -0.00749324 0)
(8.33135 -0.00242376 0)
(8.33601 0.00807435 0)
(8.34006 0.0172581 0)
(8.3442 0.0234843 0)
(8.34857 0.0276776 0)
(8.35319 0.03065 0)
(8.35796 0.0328028 0)
(8.36278 0.0343683 0)
(8.36756 0.0354914 0)
(8.37225 0.0362668 0)
(8.37681 0.036761 0)
(8.38122 0.0370254 0)
(8.38547 0.0371025 0)
(8.38955 0.0370279 0)
(8.39345 0.0368319 0)
(8.39717 0.0365402 0)
(8.40073 0.0361745 0)
(8.40411 0.0357539 0)
(8.40734 0.0352948 0)
(8.41042 0.0348126 0)
(8.41336 0.0343221 0)
(8.41618 0.0338391 0)
(8.41887 0.0333817 0)
(8.42147 0.0329713 0)
(8.42399 0.0326379 0)
(8.42648 0.0324105 0)
(8.42901 0.0323434 0)
(8.43166 0.0324265 0)
(8.43467 0.0327484 0)
(8.43817 0.0329128 0)
(8.44251 0.0330848 0)
(8.33238 0.00229414 0)
(8.33117 0.0133302 0)
(8.33277 0.0204301 0)
(8.33545 0.0238359 0)
(8.33888 0.0260028 0)
(8.3429 0.0278235 0)
(8.34708 0.0295125 0)
(8.35128 0.0310187 0)
(8.35548 0.0322616 0)
(8.35964 0.0332305 0)
(8.36376 0.0339474 0)
(8.3678 0.0344405 0)
(8.37175 0.0347383 0)
(8.37561 0.0348699 0)
(8.37936 0.0348621 0)
(8.383 0.0347389 0)
(8.38653 0.0345214 0)
(8.38995 0.034228 0)
(8.39325 0.0338751 0)
(8.39646 0.033477 0)
(8.39956 0.0330468 0)
(8.40257 0.032597 0)
(8.40549 0.0321398 0)
(8.40835 0.031688 0)
(8.41113 0.0312565 0)
(8.41387 0.0308617 0)
(8.4166 0.030524 0)
(8.41933 0.0302607 0)
(8.42215 0.0300951 0)
(8.42513 0.0300074 0)
(8.42841 0.0299918 0)
(8.43208 0.0298196 0)
(8.43626 0.0294291 0)
(8.33232 0.000883888 0)
(8.33151 0.00581683 0)
(8.33339 0.0108115 0)
(8.33641 0.0156282 0)
(8.33978 0.0200298 0)
(8.3434 0.023556 0)
(8.3471 0.0262538 0)
(8.35082 0.0283183 0)
(8.35457 0.0298862 0)
(8.3583 0.0310599 0)
(8.362 0.0319167 0)
(8.36564 0.0325124 0)
(8.36922 0.0328904 0)
(8.37272 0.0330868 0)
(8.37614 0.0331323 0)
(8.37947 0.0330528 0)
(8.38272 0.0328709 0)
(8.38589 0.0326061 0)
(8.38898 0.0322752 0)
(8.39199 0.0318932 0)
(8.39492 0.0314734 0)
(8.3978 0.031028 0)
(8.40062 0.0305688 0)
(8.40339 0.0301073 0)
(8.40613 0.0296557 0)
(8.40885 0.0292262 0)
(8.41159 0.0288315 0)
(8.41436 0.0284785 0)
(8.41723 0.0281715 0)
(8.42025 0.0278804 0)
(8.42351 0.0275684 0)
(8.42705 0.0270724 0)
(8.43089 0.0262941 0)
(8.33272 0.0017214 0)
(8.33254 0.0073245 0)
(8.33415 0.0126398 0)
(8.33671 0.0169258 0)
(8.33971 0.0203968 0)
(8.34306 0.0231409 0)
(8.34657 0.025322 0)
(8.35013 0.0270735 0)
(8.35369 0.0284554 0)
(8.35723 0.0295142 0)
(8.36072 0.0302962 0)
(8.36415 0.0308415 0)
(8.36751 0.0311853 0)
(8.37081 0.0313584 0)
(8.37402 0.0313882 0)
(8.37717 0.0312986 0)
(8.38023 0.0311101 0)
(8.38323 0.0308407 0)
(8.38616 0.0305063 0)
(8.38903 0.0301203 0)
(8.39184 0.0296951 0)
(8.3946 0.0292415 0)
(8.39732 0.0287698 0)
(8.40001 0.0282895 0)
(8.40268 0.0278097 0)
(8.40535 0.0273382 0)
(8.40804 0.0268812 0)
(8.41078 0.0264381 0)
(8.41362 0.0260014 0)
(8.41659 0.0255391 0)
(8.41973 0.0250048 0)
(8.42307 0.024288 0)
(8.42659 0.0233039 0)
(8.33284 0.00180261 0)
(8.33292 0.00650311 0)
(8.3344 0.0110441 0)
(8.33679 0.0149606 0)
(8.33963 0.0183531 0)
(8.34278 0.0211734 0)
(8.3461 0.0234488 0)
(8.34947 0.0252625 0)
(8.35287 0.0266806 0)
(8.35624 0.0277613 0)
(8.35958 0.0285582 0)
(8.36287 0.0291157 0)
(8.3661 0.0294706 0)
(8.36925 0.0296543 0)
(8.37234 0.029694 0)
(8.37536 0.0296131 0)
(8.37831 0.0294317 0)
(8.38119 0.0291673 0)
(8.38402 0.0288349 0)
(8.38678 0.0284476 0)
(8.3895 0.0280169 0)
(8.39218 0.0275529 0)
(8.39482 0.0270644 0)
(8.39744 0.0265593 0)
(8.40005 0.026044 0)
(8.40266 0.025523 0)
(8.40531 0.0249976 0)
(8.408 0.0244624 0)
(8.41077 0.0239043 0)
(8.41364 0.0232924 0)
(8.41665 0.0225833 0)
(8.41978 0.0217008 0)
(8.42301 0.0205821 0)
(8.33294 0.00184631 0)
(8.33322 0.00618569 0)
(8.3346 0.0104266 0)
(8.33679 0.0141219 0)
(8.3394 0.017288 0)
(8.34234 0.0199142 0)
(8.34547 0.0220411 0)
(8.34869 0.0237483 0)
(8.35194 0.0250961 0)
(8.35519 0.0261329 0)
(8.35842 0.026903 0)
(8.3616 0.0274447 0)
(8.36472 0.0277909 0)
(8.36778 0.0279704 0)
(8.37078 0.0280084 0)
(8.37372 0.0279268 0)
(8.37658 0.0277446 0)
(8.37939 0.0274783 0)
(8.38214 0.0271422 0)
(8.38484 0.0267483 0)
(8.38749 0.0263073 0)
(8.39011 0.0258283 0)
(8.3927 0.0253187 0)
(8.39526 0.0247846 0)
(8.39782 0.0242305 0)
(8.40039 0.0236579 0)
(8.40298 0.0230649 0)
(8.40562 0.0224438 0)
(8.40831 0.0217792 0)
(8.41109 0.0210441 0)
(8.41395 0.0202018 0)
(8.41689 0.0192007 0)
(8.41987 0.0179987 0)
(8.33299 0.00181156 0)
(8.33337 0.00576457 0)
(8.33466 0.00960842 0)
(8.33667 0.0130082 0)
(8.33911 0.0159555 0)
(8.34186 0.0184427 0)
(8.34482 0.0204873 0)
(8.34788 0.022142 0)
(8.35099 0.0234551 0)
(8.35411 0.024469 0)
(8.35723 0.0252244 0)
(8.36031 0.0257573 0)
(8.36334 0.0260992 0)
(8.36632 0.0262772 0)
(8.36925 0.0263154 0)
(8.37211 0.0262345 0)
(8.37492 0.0260526 0)
(8.37766 0.025785 0)
(8.38036 0.0254453 0)
(8.38301 0.0250448 0)
(8.38561 0.0245931 0)
(8.38818 0.0240983 0)
(8.39073 0.0235667 0)
(8.39325 0.0230031 0)
(8.39577 0.02241 0)
(8.39829 0.0217873 0)
(8.40084 0.0211311 0)
(8.40341 0.0204326 0)
(8.40603 0.0196771 0)
(8.4087 0.0188419 0)
(8.41142 0.0178984 0)
(8.41419 0.0168115 0)
(8.41697 0.015555 0)
(8.33301 0.0017356 0)
(8.33345 0.00536622 0)
(8.33467 0.0088844 0)
(8.33652 0.0120347 0)
(8.33879 0.014782 0)
(8.34136 0.0171166 0)
(8.34415 0.0190492 0)
(8.34705 0.0206206 0)
(8.35003 0.021873 0)
(8.35303 0.0228444 0)
(8.35603 0.0235706 0)
(8.35901 0.0240841 0)
(8.36196 0.0244133 0)
(8.36486 0.0245834 0)
(8.36771 0.0246165 0)
(8.37051 0.024532 0)
(8.37326 0.0243465 0)
(8.37595 0.0240746 0)
(8.3786 0.0237286 0)
(8.3812 0.0233191 0)
(8.38377 0.0228548 0)
(8.3863 0.0223427 0)
(8.3888 0.0217881 0)
(8.39129 0.0211946 0)
(8.39377 0.0205634 0)
(8.39625 0.0198932 0)
(8.39874 0.0191794 0)
(8.40125 0.0184134 0)
(8.40379 0.017582 0)
(8.40636 0.0166671 0)
(8.40896 0.0156474 0)
(8.41158 0.0144993 0)
(8.41419 0.0132077 0)
(8.33303 0.00163547 0)
(8.33349 0.00496822 0)
(8.33463 0.00817908 0)
(8.33635 0.0110785 0)
(8.33846 0.0136224 0)
(8.34087 0.015801 0)
(8.34349 0.0176197 0)
(8.34625 0.0191078 0)
(8.34908 0.0202993 0)
(8.35196 0.0212266 0)
(8.35485 0.0219211 0)
(8.35773 0.022412 0)
(8.36059 0.0227253 0)
(8.36341 0.0228841 0)
(8.36619 0.0229091 0)
(8.36893 0.022818 0)
(8.37161 0.0226266 0)
(8.37426 0.0223481 0)
(8.37685 0.0219941 0)
(8.37941 0.0215741 0)
(8.38193 0.0210959 0)
(8.38442 0.0205658 0)
(8.38689 0.0199881 0)
(8.38933 0.0193654 0)
(8.39177 0.0186983 0)
(8.3942 0.0179847 0)
(8.39664 0.01722 0)
(8.39908 0.0163963 0)
(8.40154 0.0155028 0)
(8.40402 0.0145254 0)
(8.4065 0.0134487 0)
(8.40898 0.0122575 0)
(8.41144 0.0109437 0)
(8.33304 0.00152278 0)
(8.3335 0.00457815 0)
(8.33457 0.00750735 0)
(8.33616 0.0101696 0)
(8.33813 0.0125185 0)
(8.34039 0.0145417 0)
(8.34286 0.0162411 0)
(8.34548 0.0176378 0)
(8.34818 0.0187596 0)
(8.35094 0.0196343 0)
(8.35371 0.0202895 0)
(8.35649 0.0207511 0)
(8.35926 0.0210426 0)
(8.362 0.0211852 0)
(8.3647 0.0211975 0)
(8.36737 0.0210961 0)
(8.37 0.0208953 0)
(8.37259 0.0206075 0)
(8.37513 0.020243 0)
(8.37764 0.0198106 0)
(8.38012 0.0193172 0)
(8.38256 0.0187684 0)
(8.38498 0.0181676 0)
(8.38738 0.0175169 0)
(8.38977 0.0168163 0)
(8.39215 0.0160637 0)
(8.39452 0.0152547 0)
(8.3969 0.0143827 0)
(8.39928 0.013439 0)
(8.40166 0.0124133 0)
(8.40403 0.0112948 0)
(8.40639 0.0100737 0)
(8.40871 0.00874672 0)
(8.33304 0.00140453 0)
(8.33349 0.00419681 0)
(8.3345 0.00686256 0)
(8.33598 0.00929606 0)
(8.33782 0.0114531 0)
(8.33994 0.0133199 0)
(8.34227 0.0148961 0)
(8.34474 0.0161967 0)
(8.34732 0.0172438 0)
(8.34996 0.0180609 0)
(8.35263 0.0186719 0)
(8.35531 0.0190996 0)
(8.35798 0.019365 0)
(8.36064 0.0194872 0)
(8.36327 0.0194832 0)
(8.36586 0.0193682 0)
(8.36843 0.0191552 0)
(8.37095 0.0188555 0)
(8.37345 0.0184786 0)
(8.3759 0.0180323 0)
(8.37833 0.0175228 0)
(8.38072 0.016955 0)
(8.38309 0.0163318 0)
(8.38544 0.0156548 0)
(8.38778 0.0149237 0)
(8.3901 0.0141367 0)
(8.39241 0.0132899 0)
(8.39471 0.0123782 0)
(8.39701 0.0113948 0)
(8.39929 0.0103324 0)
(8.40156 0.00918378 0)
(8.4038 0.00794296 0)
(8.406 0.00660952 0)
(8.33304 0.00128489 0)
(8.33347 0.00382564 0)
(8.33442 0.00624345 0)
(8.3358 0.00845737 0)
(8.33752 0.0104274 0)
(8.33951 0.0121387 0)
(8.34171 0.0135893 0)
(8.34406 0.0147895 0)
(8.34651 0.0157568 0)
(8.34904 0.0165109 0)
(8.3516 0.0170724 0)
(8.35418 0.017461 0)
(8.35676 0.0176956 0)
(8.35934 0.0177933 0)
(8.36189 0.0177693 0)
(8.36441 0.0176374 0)
(8.36691 0.0174094 0)
(8.36938 0.0170955 0)
(8.37181 0.0167043 0)
(8.37421 0.0162428 0)
(8.37658 0.0157166 0)
(8.37892 0.0151299 0)
(8.38124 0.0144853 0)
(8.38353 0.013784 0)
(8.38581 0.0130257 0)
(8.38806 0.012209 0)
(8.3903 0.0113308 0)
(8.39253 0.0103871 0)
(8.39474 0.00937298 0)
(8.39693 0.00828346 0)
(8.39909 0.00711402 0)
(8.40122 0.00586125 0)
(8.40332 0.00452647 0)
(8.33304 0.00116625 0)
(8.33345 0.00346525 0)
(8.33434 0.00564774 0)
(8.33564 0.0076501 0)
(8.33725 0.00943708 0)
(8.33912 0.0109938 0)
(8.34119 0.0123167 0)
(8.34342 0.013413 0)
(8.34576 0.0142962 0)
(8.34817 0.0149829 0)
(8.35063 0.0154902 0)
(8.35312 0.0158355 0)
(8.35561 0.0160352 0)
(8.3581 0.0161046 0)
(8.36057 0.0160573 0)
(8.36303 0.0159056 0)
(8.36546 0.0156601 0)
(8.36786 0.0153301 0)
(8.37023 0.0149232 0)
(8.37257 0.0144457 0)
(8.37488 0.0139026 0)
(8.37717 0.0132976 0)
(8.37943 0.0126329 0)
(8.38166 0.0119096 0)
(8.38387 0.0111277 0)
(8.38606 0.010286 0)
(8.38823 0.00938223 0)
(8.39037 0.00841349 0)
(8.3925 0.00737647 0)
(8.39459 0.00626793 0)
(8.39666 0.00508526 0)
(8.39869 0.0038268 0)
(8.40067 0.00249492 0)
(8.33304 0.00104991 0)
(8.33343 0.00311588 0)
(8.33426 0.00507363 0)
(8.33548 0.00687179 0)
(8.33699 0.0084798 0)
(8.33875 0.00988303 0)
(8.34072 0.0110772 0)
(8.34283 0.0120668 0)
(8.34506 0.0128624 0)
(8.34737 0.0134774 0)
(8.34973 0.0139265 0)
(8.35212 0.0142244 0)
(8.35452 0.0143854 0)
(8.35693 0.0144231 0)
(8.35933 0.0143494 0)
(8.36171 0.0141752 0)
(8.36407 0.0139102 0)
(8.36641 0.0135623 0)
(8.36871 0.0131386 0)
(8.37099 0.0126446 0)
(8.37324 0.0120848 0)
(8.37547 0.0114623 0)
(8.37766 0.0107792 0)
(8.37983 0.0100367 0)
(8.38198 0.00923472 0)
(8.3841 0.00837256 0)
(8.38619 0.00744873 0)
(8.38825 0.00646129 0)
(8.39029 0.00540814 0)
(8.3923 0.00428741 0)
(8.39426 0.00309786 0)
(8.39619 0.00183897 0)
(8.39808 0.000513698 0)
(8.33303 0.0009365 0)
(8.3334 0.00277737 0)
(8.33419 0.00451934 0)
(8.33533 0.0061199 0)
(8.33675 0.00755268 0)
(8.33842 0.00880377 0)
(8.34028 0.00986829 0)
(8.34229 0.010749 0)
(8.34441 0.0114538 0)
(8.34662 0.0119936 0)
(8.34888 0.0123806 0)
(8.35119 0.0126275 0)
(8.35351 0.0127465 0)
(8.35583 0.0127492 0)
(8.35815 0.0126464 0)
(8.36046 0.0124476 0)
(8.36275 0.012161 0)
(8.36502 0.0117941 0)
(8.36726 0.0113528 0)
(8.36948 0.0108422 0)
(8.37167 0.010266 0)
(8.37383 0.00962727 0)
(8.37596 0.00892785 0)
(8.37806 0.00816881 0)
(8.38014 0.00735042 0)
(8.38218 0.0064723 0)
(8.3842 0.00553361 0)
(8.38618 0.00453322 0)
(8.38813 0.00346999 0)
(8.39005 0.00234304 0)
(8.39192 0.00115208 0)
(8.39376 -0.000102615 0)
(8.39554 -0.00141784 0)
(8.33303 0.000826247 0)
(8.33338 0.0024493 0)
(8.33412 0.00398322 0)
(8.3352 0.00539208 0)
(8.33654 0.00665318 0)
(8.33811 0.00775358 0)
(8.33987 0.00868811 0)
(8.34179 0.00945813 0)
(8.34381 0.0100696 0)
(8.34593 0.0105313 0)
(8.3481 0.0108531 0)
(8.35032 0.0110458 0)
(8.35255 0.0111198 0)
(8.3548 0.011085 0)
(8.35705 0.0109507 0)
(8.35928 0.0107252 0)
(8.36151 0.0104158 0)
(8.36371 0.0100289 0)
(8.36588 0.00956959 0)
(8.36804 0.00904243 0)
(8.37016 0.0084508 0)
(8.37225 0.00779729 0)
(8.37432 0.00708367 0)
(8.37635 0.00631102 0)
(8.37835 0.00547981 0)
(8.38033 0.00459002 0)
(8.38226 0.0036413 0)
(8.38417 0.00263319 0)
(8.38603 0.00156526 0)
(8.38786 0.000437373 0)
(8.38964 -0.000750129 0)
(8.39138 -0.00199649 0)
(8.39307 -0.00329838 0)
(8.33303 0.000719146 0)
(8.33336 0.00213109 0)
(8.33406 0.00346363 0)
(8.33507 0.00468599 0)
(8.33634 0.00577855 0)
(8.33783 0.00672951 0)
(8.3395 0.00753368 0)
(8.34133 0.00819147 0)
(8.34326 0.00870725 0)
(8.34529 0.00908788 0)
(8.34738 0.00934154 0)
(8.34951 0.00947702 0)
(8.35167 0.00950316 0)
(8.35384 0.00942841 0)
(8.35601 0.00926059 0)
(8.35818 0.00900682 0)
(8.36033 0.00867338 0)
(8.36246 0.0082657 0)
(8.36457 0.00778838 0)
(8.36666 0.00724523 0)
(8.36872 0.00663924 0)
(8.37075 0.00597273 0)
(8.37274 0.00524734 0)
(8.37471 0.00446415 0)
(8.37664 0.00362379 0)
(8.37853 0.00272654 0)
(8.38039 0.00177246 0)
(8.38221 0.000761567 0)
(8.384 -0.000306027 0)
(8.38574 -0.00142996 0)
(8.38743 -0.00260945 0)
(8.38908 -0.00384346 0)
(8.39068 -0.00512865 0)
(8.33303 0.00061506 0)
(8.33334 0.00182205 0)
(8.334 0.00295913 0)
(8.33496 0.00399968 0)
(8.33616 0.00492682 0)
(8.33757 0.00572998 0)
(8.33917 0.00640414 0)
(8.34091 0.00694902 0)
(8.34276 0.00736775 0)
(8.3447 0.00766564 0)
(8.34671 0.00784917 0)
(8.34876 0.0079255 0)
(8.35085 0.00790192 0)
(8.35294 0.00778545 0)
(8.35504 0.00758263 0)
(8.35714 0.00729946 0)
(8.35923 0.00694124 0)
(8.36129 0.00651258 0)
(8.36334 0.00601739 0)
(8.36536 0.00545893 0)
(8.36735 0.00483983 0)
(8.36931 0.00416211 0)
(8.37124 0.00342731 0)
(8.37313 0.00263651 0)
(8.37499 0.00179044 0)
(8.37681 0.000889608 0)
(8.37859 -6.56186e-05 0)
(8.38033 -0.00107487 0)
(8.38203 -0.00213765 0)
(8.38369 -0.00325326 0)
(8.3853 -0.00442067 0)
(8.38686 -0.00563864 0)
(8.38837 -0.00690394 0)
(8.33303 0.00051377 0)
(8.33332 0.00152129 0)
(8.33395 0.00246781 0)
(8.33486 0.0033301 0)
(8.33599 0.00409365 0)
(8.33734 0.00474923 0)
(8.33886 0.00529227 0)
(8.34052 0.00572217 0)
(8.3423 0.00604118 0)
(8.34417 0.00625337 0)
(8.3461 0.00636378 0)
(8.34808 0.00637819 0)
(8.35009 0.00630254 0)
(8.35212 0.00614249 0)
(8.35415 0.0059033 0)
(8.35618 0.0055899 0)
(8.3582 0.00520662 0)
(8.3602 0.00475725 0)
(8.36218 0.00424502 0)
(8.36413 0.00367266 0)
(8.36606 0.00304239 0)
(8.36795 0.00235598 0)
(8.36981 0.00161481 0)
(8.37163 0.000819897 0)
(8.37342 -2.79248e-05 0)
(8.37516 -0.000928024 0)
(8.37687 -0.00187982 0)
(8.37853 -0.00288271 0)
(8.38015 -0.00393595 0)
(8.38172 -0.00503862 0)
(8.38325 -0.00618953 0)
(8.38472 -0.00738739 0)
(8.38614 -0.00862905 0)
(8.33303 0.000415067 0)
(8.3333 0.0012284 0)
(8.3339 0.00198951 0)
(8.33476 0.00267817 0)
(8.33585 0.00328206 0)
(8.33713 0.00379326 0)
(8.33858 0.00420762 0)
(8.34018 0.0045243 0)
(8.34189 0.0047447 0)
(8.34368 0.00487187 0)
(8.34554 0.00490933 0)
(8.34745 0.00486153 0)
(8.3494 0.00473314 0)
(8.35136 0.00452863 0)
(8.35332 0.00425225 0)
(8.35529 0.00390796 0)
(8.35724 0.00349913 0)
(8.35918 0.00302882 0)
(8.3611 0.00249974 0)
(8.36299 0.00191402 0)
(8.36484 0.00127358 0)
(8.36667 0.000579939 0)
(8.36846 -0.000165695 0)
(8.37022 -0.000962342 0)
(8.37193 -0.00180916 0)
(8.3736 -0.00270544 0)
(8.37523 -0.00365047 0)
(8.37682 -0.00464349 0)
(8.37836 -0.00568363 0)
(8.37985 -0.00676984 0)
(8.38129 -0.00790088 0)
(8.38268 -0.00907543 0)
(8.38402 -0.0102905 0)
(8.33303 0.000318564 0)
(8.33329 0.0009412 0)
(8.33386 0.00151837 0)
(8.33468 0.00203235 0)
(8.33571 0.00247317 0)
(8.33694 0.00283484 0)
(8.33834 0.00311441 0)
(8.33987 0.00331148 0)
(8.34151 0.00342722 0)
(8.34325 0.00346387 0)
(8.34504 0.00342377 0)
(8.34689 0.00331083 0)
(8.34877 0.00312829 0)
(8.35067 0.00287897 0)
(8.35257 0.00256563 0)
(8.35447 0.00219167 0)
(8.35637 0.00175934 0)
(8.35824 0.00127074 0)
(8.36009 0.000727852 0)
(8.36192 0.000132518 0)
(8.36371 -0.000513923 0)
(8.36547 -0.00121028 0)
(8.3672 -0.00195553 0)
(8.36888 -0.00274877 0)
(8.37053 -0.00358924 0)
(8.37213 -0.00447618 0)
(8.37368 -0.00540882 0)
(8.37519 -0.00638634 0)
(8.37665 -0.00740779 0)
(8.37807 -0.0084721 0)
(8.37943 -0.00957798 0)
(8.38074 -0.0107242 0)
(8.38199 -0.0119078 0)
(8.33302 0.000224645 0)
(8.33327 0.000664161 0)
(8.33381 0.00106762 0)
(8.33459 0.00141903 0)
(8.33558 0.00170983 0)
(8.33676 0.00193489 0)
(8.33811 0.00209147 0)
(8.33959 0.00217901 0)
(8.34117 0.00219816 0)
(8.34285 0.00215133 0)
(8.34459 0.00203684 0)
(8.34638 0.00185848 0)
(8.34821 0.00161989 0)
(8.35005 0.00132327 0)
(8.35189 0.00097078 0)
(8.35374 0.000563659 0)
(8.35557 0.000104104 0)
(8.35739 -0.000406069 0)
(8.35918 -0.000965524 0)
(8.36095 -0.00157292 0)
(8.36268 -0.00222729 0)
(8.36437 -0.00292774 0)
(8.36603 -0.00367341 0)
(8.36765 -0.00446356 0)
(8.36922 -0.00529749 0)
(8.37075 -0.00617449 0)
(8.37224 -0.00709379 0)
(8.37367 -0.00805458 0)
(8.37506 -0.0090559 0)
(8.37639 -0.0100967 0)
(8.37768 -0.0111758 0)
(8.37891 -0.0122919 0)
(8.38009 -0.0134426 0)
(8.33302 0.000130328 0)
(8.33327 0.00037833 0)
(8.33378 0.000590652 0)
(8.33454 0.00075505 0)
(8.33549 0.000867661 0)
(8.33663 0.000927816 0)
(8.33792 0.000935895 0)
(8.33935 0.000892503 0)
(8.34089 0.000798482 0)
(8.34252 0.000653392 0)
(8.3442 0.000462199 0)
(8.34594 0.000222998 0)
(8.34771 -6.52731e-05 0)
(8.3495 -0.000401665 0)
(8.35129 -0.000784987 0)
(8.35308 -0.00121518 0)
(8.35485 -0.00169104 0)
(8.35661 -0.00221164 0)
(8.35835 -0.00277629 0)
(8.36005 -0.0033845 0)
(8.36172 -0.00403559 0)
(8.36336 -0.00472895 0)
(8.36495 -0.00546404 0)
(8.36651 -0.0062403 0)
(8.36802 -0.00705713 0)
(8.36948 -0.0079139 0)
(8.37089 -0.0088099 0)
(8.37225 -0.00974432 0)
(8.37357 -0.0107163 0)
(8.37483 -0.0117247 0)
(8.37604 -0.0127684 0)
(8.37719 -0.0138463 0)
(8.37829 -0.0149559 0)
(8.33302 4.76295e-05 0)
(8.33324 0.000144735 0)
(8.33372 0.000219537 0)
(8.33443 0.000256207 0)
(8.33535 0.000249132 0)
(8.33645 0.000195869 0)
(8.33771 9.60329e-05 0)
(8.33911 -4.94721e-05 0)
(8.34061 -0.000239099 0)
(8.3422 -0.000472653 0)
(8.34386 -0.000744577 0)
(8.34556 -0.00105642 0)
(8.34729 -0.00140924 0)
(8.34903 -0.00180221 0)
(8.35078 -0.00223482 0)
(8.35252 -0.0027061 0)
(8.35425 -0.00321594 0)
(8.35595 -0.0037642 0)
(8.35763 -0.00435057 0)
(8.35928 -0.00497475 0)
(8.3609 -0.00563645 0)
(8.36247 -0.00633538 0)
(8.36401 -0.00707124 0)
(8.36549 -0.00784369 0)
(8.36694 -0.0086523 0)
(8.36833 -0.00949661 0)
(8.36968 -0.010376 0)
(8.37097 -0.0112899 0)
(8.37222 -0.0122374 0)
(8.3734 -0.0132177 0)
(8.37454 -0.0142298 0)
(8.37562 -0.0152726 0)
(8.37665 -0.016344 0)
(8.33303 -5.52646e-05 0)
(8.33326 -0.000189257 0)
(8.33374 -0.00037019 0)
(8.33444 -0.000595123 0)
(8.33532 -0.000848458 0)
(8.33639 -0.00111862 0)
(8.33761 -0.00140011 0)
(8.33896 -0.00169158 0)
(8.34042 -0.0019946 0)
(8.34196 -0.00231119 0)
(8.34357 -0.00264832 0)
(8.34522 -0.00300788 0)
(8.3469 -0.00339157 0)
(8.3486 -0.00380201 0)
(8.3503 -0.00424147 0)
(8.352 -0.0047116 0)
(8.35368 -0.0052138 0)
(8.35534 -0.00574899 0)
(8.35697 -0.00631779 0)
(8.35856 -0.00692059 0)
(8.36012 -0.00755762 0)
(8.36164 -0.00822895 0)
(8.36312 -0.0089345 0)
(8.36455 -0.00967406 0)
(8.36594 -0.0104473 0)
(8.36727 -0.0112539 0)
(8.36855 -0.0120931 0)
(8.36978 -0.0129644 0)
(8.37096 -0.013867 0)
(8.37208 -0.0148 0)
(8.37315 -0.0157624 0)
(8.37416 -0.0167533 0)
(8.37512 -0.0177706 0)
(8.333 -9.99606e-05 0)
(8.33315 -0.000263597 0)
(8.33355 -0.000432671 0)
(8.33419 -0.000643238 0)
(8.33506 -0.000907124 0)
(8.33613 -0.00122202 0)
(8.33736 -0.00157913 0)
(8.33873 -0.00196906 0)
(8.3402 -0.00238468 0)
(8.34175 -0.00282138 0)
(8.34336 -0.00327689 0)
(8.345 -0.00374955 0)
(8.34667 -0.00423941 0)
(8.34834 -0.00474751 0)
(8.35001 -0.00527502 0)
(8.35167 -0.00582307 0)
(8.35331 -0.0063929 0)
(8.35492 -0.00698569 0)
(8.35651 -0.00760246 0)
(8.35805 -0.00824413 0)
(8.35956 -0.00891143 0)
(8.36103 -0.00960496 0)
(8.36245 -0.0103252 0)
(8.36382 -0.0110723 0)
(8.36514 -0.0118465 0)
(8.36641 -0.0126477 0)
(8.36763 -0.0134758 0)
(8.36879 -0.0143304 0)
(8.3699 -0.0152112 0)
(8.37096 -0.0161175 0)
(8.37196 -0.0170487 0)
(8.3729 -0.0180041 0)
(8.37379 -0.0189821 0)
(8.33306 -0.000301467 0)
(8.33335 -0.000974919 0)
(8.33381 -0.00172447 0)
(8.33444 -0.00248134 0)
(8.33524 -0.00318989 0)
(8.33622 -0.00383017 0)
(8.33737 -0.0044037 0)
(8.33865 -0.00492109 0)
(8.34005 -0.00539589 0)
(8.34154 -0.00584148 0)
(8.34309 -0.00627036 0)
(8.34469 -0.00669297 0)
(8.34631 -0.00711778 0)
(8.34795 -0.00755155 0)
(8.34958 -0.00799961 0)
(8.35121 -0.00846603 0)
(8.35281 -0.00895389 0)
(8.35439 -0.00946549 0)
(8.35594 -0.0100025 0)
(8.35745 -0.010566 0)
(8.35892 -0.0111569 0)
(8.36034 -0.0117755 0)
(8.36172 -0.012422 0)
(8.36304 -0.0130966 0)
(8.36432 -0.0137989 0)
(8.36554 -0.0145286 0)
(8.3667 -0.0152854 0)
(8.36781 -0.0160687 0)
(8.36887 -0.0168777 0)
(8.36987 -0.0177118 0)
(8.37081 -0.0185702 0)
(8.37169 -0.0194519 0)
(8.37252 -0.0203553 0)
(8.33294 -5.33264e-05 0)
(8.33286 -7.56316e-05 0)
(8.33309 -0.000167798 0)
(8.33369 -0.000452536 0)
(8.33459 -0.000934265 0)
(8.33573 -0.00155531 0)
(8.33704 -0.00225536 0)
(8.33847 -0.00299185 0)
(8.33998 -0.00373827 0)
(8.34156 -0.00447912 0)
(8.34317 -0.00520653 0)
(8.3448 -0.0059177 0)
(8.34643 -0.00661308 0)
(8.34806 -0.00729505 0)
(8.34967 -0.00796698 0)
(8.35127 -0.00863258 0)
(8.35283 -0.00929555 0)
(8.35437 -0.00995937 0)
(8.35586 -0.0106272 0)
(8.35732 -0.0113018 0)
(8.35873 -0.0119857 0)
(8.36009 -0.0126808 0)
(8.36141 -0.0133889 0)
(8.36267 -0.0141112 0)
(8.36388 -0.014849 0)
(8.36504 -0.0156029 0)
(8.36614 -0.0163736 0)
(8.36718 -0.0171614 0)
(8.36817 -0.0179664 0)
(8.3691 -0.0187886 0)
(8.36998 -0.0196278 0)
(8.37079 -0.0204838 0)
(8.37156 -0.0213555 0)
(8.33317 -0.000760318 0)
(8.33367 -0.00262721 0)
(8.33407 -0.00456119 0)
(8.33448 -0.00620677 0)
(8.33504 -0.00749248 0)
(8.33584 -0.00847439 0)
(8.33688 -0.0092272 0)
(8.3381 -0.00981507 0)
(8.33946 -0.0102894 0)
(8.34093 -0.01069 0)
(8.34247 -0.0110469 0)
(8.34406 -0.0113822 0)
(8.34568 -0.0117116 0)
(8.3473 -0.0120463 0)
(8.34892 -0.012394 0)
(8.35051 -0.0127599 0)
(8.35208 -0.0131476 0)
(8.35362 -0.0135592 0)
(8.35512 -0.013996 0)
(8.35657 -0.0144589 0)
(8.35797 -0.014948 0)
(8.35932 -0.0154633 0)
(8.36062 -0.0160045 0)
(8.36187 -0.0165712 0)
(8.36306 -0.0171629 0)
(8.36419 -0.0177789 0)
(8.36526 -0.0184186 0)
(8.36627 -0.0190811 0)
(8.36723 -0.0197658 0)
(8.36812 -0.0204717 0)
(8.36896 -0.0211981 0)
(8.36973 -0.0219442 0)
(8.37045 -0.0227085 0)
(8.33263 0.000583165 0)
(8.33174 0.00201881 0)
(8.33175 0.00292132 0)
(8.3326 0.00286443 0)
(8.33389 0.00204517 0)
(8.33536 0.000828268 0)
(8.33693 -0.00054902 0)
(8.33855 -0.00196211 0)
(8.34019 -0.00334395 0)
(8.34184 -0.0046585 0)
(8.34348 -0.00589037 0)
(8.34511 -0.00703717 0)
(8.34671 -0.00810352 0)
(8.34829 -0.00909749 0)
(8.34984 -0.0100286 0)
(8.35136 -0.0109065 0)
(8.35284 -0.0117405 0)
(8.35429 -0.0125391 0)
(8.35569 -0.0133097 0)
(8.35704 -0.0140588 0)
(8.35835 -0.0147922 0)
(8.35961 -0.0155145 0)
(8.36082 -0.01623 0)
(8.36198 -0.0169418 0)
(8.36308 -0.0176529 0)
(8.36413 -0.0183656 0)
(8.36513 -0.0190816 0)
(8.36606 -0.0198024 0)
(8.36694 -0.0205292 0)
(8.36777 -0.0212628 0)
(8.36853 -0.0220038 0)
(8.36925 -0.0227524 0)
(8.3699 -0.0235083 0)
(8.33358 -0.00194368 0)
(8.33468 -0.00685553 0)
(8.33444 -0.011613 0)
(8.33375 -0.0147799 0)
(8.33351 -0.0165366 0)
(8.33393 -0.0174761 0)
(8.33482 -0.0179276 0)
(8.33603 -0.0180846 0)
(8.33746 -0.0180816 0)
(8.33903 -0.0180059 0)
(8.34069 -0.0179114 0)
(8.34239 -0.0178308 0)
(8.34412 -0.0177827 0)
(8.34583 -0.0177771 0)
(8.34752 -0.0178185 0)
(8.34919 -0.017908 0)
(8.3508 -0.0180448 0)
(8.35238 -0.0182269 0)
(8.3539 -0.018452 0)
(8.35536 -0.0187174 0)
(8.35677 -0.0190204 0)
(8.35812 -0.0193584 0)
(8.35941 -0.0197291 0)
(8.36064 -0.0201302 0)
(8.36181 -0.0205596 0)
(8.36292 -0.0210156 0)
(8.36397 -0.0214962 0)
(8.36495 -0.0220001 0)
(8.36587 -0.0225256 0)
(8.36674 -0.0230716 0)
(8.36754 -0.0236368 0)
(8.36828 -0.0242204 0)
(8.36897 -0.0248207 0)
(8.33162 0.00370273 0)
(8.32827 0.0102707 0)
(8.32842 0.0134459 0)
(8.33099 0.01341 0)
(8.33363 0.0113794 0)
(8.33584 0.00856012 0)
(8.33783 0.00558306 0)
(8.33965 0.00269318 0)
(8.34136 2.67106e-06 0)
(8.34297 -0.00244043 0)
(8.34453 -0.00463056 0)
(8.34604 -0.00658354 0)
(8.34752 -0.00832354 0)
(8.34898 -0.00987725 0)
(8.35041 -0.0112709 0)
(8.35183 -0.0125287 0)
(8.35322 -0.0136722 0)
(8.35459 -0.0147201 0)
(8.35593 -0.0156885 0)
(8.35724 -0.0165911 0)
(8.35852 -0.0174394 0)
(8.35976 -0.0182433 0)
(8.36096 -0.0190108 0)
(8.36212 -0.0197489 0)
(8.36323 -0.0204632 0)
(8.3643 -0.0211585 0)
(8.36532 -0.0218388 0)
(8.36629 -0.0225073 0)
(8.3672 -0.0231668 0)
(8.36807 -0.0238192 0)
(8.36888 -0.0244665 0)
(8.36963 -0.0251096 0)
(8.37033 -0.0257495 0)
(8.3343 -0.00642011 0)
(8.33463 -0.020644 0)
(8.33075 -0.029849 0)
(8.32676 -0.033812 0)
(8.32485 -0.0346865 0)
(8.32495 -0.0341181 0)
(8.32615 -0.0329188 0)
(8.3279 -0.0314864 0)
(8.33 -0.0300431 0)
(8.3323 -0.0287051 0)
(8.33469 -0.0275237 0)
(8.33713 -0.0265152 0)
(8.33957 -0.0256778 0)
(8.34198 -0.025001 0)
(8.34435 -0.0244699 0)
(8.34667 -0.0240688 0)
(8.34893 -0.0237821 0)
(8.35112 -0.0235956 0)
(8.35324 -0.0234964 0)
(8.3553 -0.0234733 0)
(8.35727 -0.0235164 0)
(8.35918 -0.0236172 0)
(8.361 -0.0237684 0)
(8.36276 -0.0239638 0)
(8.36443 -0.024198 0)
(8.36603 -0.0244666 0)
(8.36755 -0.0247657 0)
(8.36899 -0.0250918 0)
(8.37036 -0.0254422 0)
(8.37166 -0.0258144 0)
(8.37288 -0.0262065 0)
(8.37402 -0.0266168 0)
(8.3751 -0.0270435 0)
(8.32884 0.0226031 0)
(8.32235 0.042794 0)
(8.32669 0.0440365 0)
(8.33333 0.0380929 0)
(8.33786 0.0307566 0)
(8.34073 0.0236247 0)
(8.34306 0.0170082 0)
(8.34528 0.0110814 0)
(8.3475 0.00590005 0)
(8.3498 0.0014163 0)
(8.3522 -0.00245 0)
(8.3547 -0.00578065 0)
(8.35728 -0.00865325 0)
(8.35992 -0.0111381 0)
(8.36259 -0.0132966 0)
(8.36528 -0.015181 0)
(8.36796 -0.0168352 0)
(8.37063 -0.0182965 0)
(8.37325 -0.0195957 0)
(8.37583 -0.0207587 0)
(8.37834 -0.0218072 0)
(8.38079 -0.0227592 0)
(8.38317 -0.0236297 0)
(8.38547 -0.0244314 0)
(8.38768 -0.0251748 0)
(8.38981 -0.025869 0)
(8.39184 -0.0265212 0)
(8.39379 -0.027138 0)
(8.39564 -0.0277246 0)
(8.3974 -0.0282856 0)
(8.39907 -0.0288252 0)
(8.40064 -0.0293459 0)
(8.40212 -0.0298523 0)
(8.32436 -0.0380213 0)
(8.29386 -0.0682942 0)
(8.27218 -0.0716492 0)
(8.26671 -0.0685301 0)
(8.27359 -0.0641588 0)
(8.28621 -0.0593165 0)
(8.30095 -0.0546241 0)
(8.31625 -0.0504392 0)
(8.33127 -0.0468222 0)
(8.34555 -0.0437475 0)
(8.35889 -0.0411696 0)
(8.37122 -0.0390294 0)
(8.38255 -0.0372647 0)
(8.39293 -0.0358182 0)
(8.40241 -0.0346399 0)
(8.41107 -0.0336865 0)
(8.41895 -0.0329214 0)
(8.42614 -0.0323139 0)
(8.43268 -0.0318385 0)
(8.43863 -0.0314739 0)
(8.44403 -0.0312027 0)
(8.44894 -0.0310102 0)
(8.45338 -0.0308845 0)
(8.4574 -0.0308155 0)
(8.46103 -0.0307949 0)
(8.46429 -0.0308155 0)
(8.46722 -0.0308715 0)
(8.46984 -0.030958 0)
(8.47216 -0.0310706 0)
(8.47422 -0.0312058 0)
(8.47603 -0.0313601 0)
(8.4776 -0.0315307 0)
(8.47896 -0.0317141 0)
(8.34002 0.156992 0)
(8.382 0.149004 0)
(8.40251 0.103393 0)