/*--------------------------------*- C++ -*----------------------------------*\
| =========                 |                                                 |
| \\      /  F ield         | OpenFOAM: The Open Source CFD Toolbox           |
|  \\    /   O peration     | Version:  2.1.1                                 |
|   \\  /    A nd           | Web:      www.OpenFOAM.org                      |
|    \\/     M anipulation  |                                                 |
\*---------------------------------------------------------------------------*/
FoamFile
{
    version     2.0;
    format      ascii;
    class       volScalarField;
    location    "0.165";
    object      epsilon;
}
// * * * * * * * * * * * * * * * * * * * * * * * * * * * * * * * * * * * * * //

dimensions      [0 2 -3 0 0 0 0];

internalField   nonuniform List<scalar> 
6820
(
151.448
203.151
260.735
321.761
383.628
443.725
499.765
550.038
593.49
629.679
658.672
680.909
697.065
707.938
714.353
717.108
716.931
714.465
710.258
704.77
698.378
691.384
684.03
676.502
668.944
661.465
654.14
647.039
640.116
633.779
626.146
626.227
590.815
11.7448
21.4174
29.944
38.6249
47.581
56.5585
65.3205
73.6657
81.4319
88.5107
94.8473
100.434
105.303
109.508
113.122
116.223
118.887
121.188
123.19
124.952
126.523
127.944
129.248
130.466
131.62
132.731
133.819
134.907
136.021
137.23
138.552
140.464
142.618
5.83781
7.51678
9.20656
10.8092
12.3197
13.7472
15.0882
16.3389
17.4978
18.5647
19.5414
20.4314
21.24
21.9738
22.6399
23.2461
23.7998
24.3086
24.7792
25.2182
25.6311
26.023
26.3983
26.7609
27.1138
27.46
27.8017
28.1412
28.4802
28.8213
29.1671
29.5139
29.9119
5.2423
5.56004
6.00443
6.49345
6.98566
7.46184
7.9129
8.33454
8.72509
9.08438
9.41318
9.71282
9.98501
10.2316
10.4548
10.6564
10.8385
11.003
11.1518
11.2867
11.4093
11.521
11.6233
11.7174
11.8045
11.8855
11.9612
12.0323
12.0993
12.1626
12.2217
12.2771
12.3263
5.17349
5.18677
5.26821
5.39775
5.55637
5.72967
5.90778
6.08426
6.25509
6.41784
6.57112
6.71423
6.84692
6.96927
7.08154
7.18415
7.2776
7.36244
7.43924
7.5086
7.5711
7.62732
7.67781
7.72309
7.76366
7.8
7.83251
7.86161
7.88764
7.91092
7.93168
7.95017
7.96646
5.16878
5.12131
5.09602
5.09482
5.11536
5.15307
5.20299
5.26075
5.32292
5.38693
5.45089
5.5135
5.57382
5.63124
5.68538
5.73602
5.78304
5.82645
5.86631
5.90271
5.93579
5.96573
5.99268
6.01685
6.03842
6.05758
6.07451
6.08941
6.10244
6.11378
6.12359
6.132
6.13919
5.16887
5.11169
5.06115
5.01963
4.9884
4.96754
4.95615
4.95279
4.95587
4.96386
4.97543
4.98945
5.00503
5.02143
5.0381
5.05461
5.07062
5.08591
5.10031
5.1137
5.12601
5.13721
5.14728
5.15623
5.16409
5.17091
5.17672
5.18157
5.18554
5.18869
5.19107
5.19274
5.19378
5.16902
5.11063
5.05514
5.00339
4.95619
4.91413
4.87746
4.8461
4.81971
4.7978
4.77978
4.76509
4.75315
4.74347
4.73559
4.72913
4.72377
4.71923
4.71529
4.71176
4.70849
4.70537
4.7023
4.69921
4.69604
4.69275
4.68933
4.68574
4.68198
4.67805
4.67396
4.6697
4.66529
5.16904
5.11054
5.05431
5.00049
4.94927
4.9009
4.85558
4.81345
4.77454
4.7388
4.70609
4.67621
4.64894
4.62402
4.60123
4.5803
4.56103
4.54321
4.52665
4.51119
4.49668
4.483
4.47003
4.45769
4.44588
4.43454
4.42361
4.41305
4.4028
4.39285
4.38315
4.37369
4.36443
5.16904
5.11054
5.0542
5.00002
4.94795
4.89803
4.85027
4.8047
4.76137
4.72026
4.68137
4.64463
4.60998
4.57733
4.54655
4.51755
4.4902
4.46438
4.43996
4.41685
4.39493
4.37411
4.35429
4.33539
4.31733
4.30005
4.28348
4.26757
4.25227
4.23754
4.22333
4.20961
4.19634
5.16904
5.11053
5.05418
4.99994
4.94772
4.89747
4.84912
4.80264
4.75798
4.71512
4.67403
4.63468
4.59701
4.56099
4.52656
4.49366
4.46223
4.4322
4.4035
4.37607
4.34983
4.32471
4.30066
4.27761
4.2555
4.23427
4.21388
4.19428
4.17542
4.15727
4.13977
4.1229
4.10661
5.16904
5.11052
5.05417
4.99991
4.94767
4.89735
4.84888
4.80218
4.75718
4.71383
4.67208
4.63186
4.59315
4.55588
4.52001
4.4855
4.4523
4.42036
4.38963
4.36007
4.33163
4.30426
4.27792
4.25256
4.22813
4.2046
4.18192
4.16005
4.13897
4.11862
4.09899
4.08003
4.06171
5.16904
5.11052
5.05416
4.99989
4.94764
4.89731
4.8488
4.80205
4.75698
4.7135
4.67157
4.63111
4.59207
4.5544
4.51804
4.48295
4.44909
4.4164
4.38484
4.35438
4.32497
4.29657
4.26914
4.24265
4.21707
4.19235
4.16846
4.14538
4.12306
4.10148
4.08062
4.06044
4.0409
5.16904
5.11052
5.05415
4.99988
4.94762
4.89727
4.84876
4.80199
4.75689
4.71339
4.67141
4.63088
4.59175
4.55396
4.51746
4.48218
4.4481
4.41515
4.38329
4.35249
4.3227
4.29389
4.26601
4.23905
4.21295
4.18769
4.16325
4.13958
4.11667
4.09448
4.07299
4.05217
4.032
5.16903
5.11051
5.05414
4.99987
4.9476
4.89725
4.84873
4.80195
4.75684
4.71332
4.67132
4.63078
4.59162
4.55379
4.51724
4.48191
4.44775
4.41472
4.38277
4.35185
4.32193
4.29297
4.26493
4.23778
4.21148
4.18601
4.16133
4.13742
4.11425
4.09179
4.07001
4.0489
4.02842
5.16903
5.11051
5.05413
4.99986
4.94758
4.89723
4.8487
4.80191
4.7568
4.71327
4.67126
4.6307
4.59153
4.55369
4.51712
4.48177
4.44759
4.41453
4.38254
4.35158
4.32162
4.2926
4.2645
4.23729
4.21092
4.18537
4.1606
4.13659
4.11332
4.09074
4.06885
4.04761
4.027
5.16903
5.1105
5.05413
4.99985
4.94757
4.89721
4.84867
4.80188
4.75675
4.71322
4.6712
4.63063
4.59145
4.5536
4.51702
4.48166
4.44747
4.41439
4.38239
4.35141
4.32143
4.2924
4.26428
4.23703
4.21064
4.18505
4.16025
4.13621
4.11289
4.09027
4.06833
4.04704
4.02637
5.16903
5.1105
5.05412
4.99984
4.94756
4.89719
4.84865
4.80185
4.75672
4.71317
4.67115
4.63057
4.59138
4.55353
4.51694
4.48157
4.44736
4.41428
4.38226
4.35128
4.32128
4.29224
4.2641
4.23685
4.21044
4.18484
4.16002
4.13596
4.11262
4.08998
4.06801
4.0467
4.02601
5.16903
5.1105
5.05412
4.99983
4.94755
4.89718
4.84863
4.80183
4.75669
4.71313
4.6711
4.63052
4.59132
4.55345
4.51686
4.48148
4.44727
4.41417
4.38215
4.35116
4.32115
4.2921
4.26395
4.23669
4.21026
4.18465
4.15983
4.13575
4.1124
4.08974
4.06776
4.04643
4.02573
5.16903
5.1105
5.05412
4.99982
4.94754
4.89716
4.84861
4.8018
4.75666
4.7131
4.67106
4.63047
4.59127
4.55339
4.51679
4.4814
4.44718
4.41407
4.38204
4.35104
4.32103
4.29197
4.26381
4.23654
4.21011
4.18449
4.15965
4.13556
4.1122
4.08953
4.06754
4.0462
4.02548
5.16903
5.1105
5.05411
4.99982
4.94753
4.89715
4.8486
4.80178
4.75663
4.71307
4.67102
4.63043
4.59122
4.55333
4.51672
4.48133
4.4471
4.41399
4.38195
4.35094
4.32092
4.29184
4.26368
4.2364
4.20996
4.18433
4.15948
4.13538
4.11201
4.08933
4.06733
4.04597
4.02524
5.16903
5.11049
5.05411
4.99981
4.94752
4.89714
4.84858
4.80176
4.75661
4.71304
4.67099
4.63039
4.59117
4.55328
4.51666
4.48126
4.44702
4.41391
4.38186
4.35084
4.32081
4.29173
4.26356
4.23627
4.20982
4.18418
4.15932
4.13521
4.11183
4.08914
4.06713
4.04576
4.02502
5.16903
5.11049
5.05411
4.99981
4.94752
4.89713
4.84857
4.80175
4.75659
4.71302
4.67096
4.63035
4.59113
4.55323
4.51661
4.4812
4.44696
4.41383
4.38178
4.35075
4.32072
4.29163
4.26345
4.23615
4.20969
4.18404
4.15917
4.13506
4.11166
4.08897
4.06694
4.04557
4.02481
5.16903
5.11049
5.05411
4.99981
4.94751
4.89712
4.84856
4.80174
4.75657
4.71299
4.67093
4.63032
4.59109
4.55319
4.51656
4.48115
4.4469
4.41376
4.3817
4.35067
4.32063
4.29153
4.26335
4.23604
4.20957
4.18391
4.15904
4.13491
4.11151
4.0888
4.06677
4.04538
4.02462
5.16903
5.11049
5.0541
4.9998
4.94751
4.89712
4.84855
4.80172
4.75656
4.71297
4.67091
4.63029
4.59106
4.55315
4.51652
4.4811
4.44684
4.4137
4.38164
4.3506
4.32055
4.29144
4.26325
4.23593
4.20946
4.18379
4.15891
4.13477
4.11136
4.08865
4.0666
4.04521
4.02443
5.16903
5.11049
5.0541
4.9998
4.9475
4.89711
4.84854
4.80171
4.75654
4.71296
4.67089
4.63027
4.59103
4.55312
4.51648
4.48106
4.4468
4.41365
4.38158
4.35053
4.32048
4.29137
4.26317
4.23584
4.20936
4.18369
4.15879
4.13465
4.11123
4.08851
4.06645
4.04505
4.02426
5.16903
5.11049
5.0541
4.9998
4.9475
4.89711
4.84854
4.8017
4.75653
4.71294
4.67087
4.63025
4.59101
4.55309
4.51645
4.48102
4.44675
4.4136
4.38152
4.35047
4.32041
4.29129
4.26309
4.23575
4.20927
4.18359
4.15869
4.13454
4.11111
4.08838
4.06631
4.0449
4.02411
5.16903
5.11049
5.0541
4.9998
4.9475
4.89711
4.84853
4.8017
4.75653
4.71294
4.67086
4.63024
4.59099
4.55307
4.51643
4.48099
4.44672
4.41357
4.38148
4.35043
4.32036
4.29124
4.26302
4.23569
4.20919
4.1835
4.1586
4.13444
4.111
4.08826
4.06619
4.04477
4.02397
5.16903
5.11049
5.0541
4.9998
4.9475
4.8971
4.84853
4.80169
4.75651
4.71292
4.67084
4.63021
4.59097
4.55305
4.51639
4.48096
4.44668
4.41352
4.38144
4.35038
4.3203
4.29118
4.26296
4.23562
4.20912
4.18342
4.15851
4.13435
4.11091
4.08816
4.06608
4.04466
4.02385
5.16903
5.11049
5.0541
4.9998
4.9475
4.89711
4.84854
4.8017
4.75653
4.71294
4.67086
4.63023
4.59098
4.55306
4.5164
4.48096
4.44669
4.41353
4.38143
4.35037
4.32029
4.29116
4.26294
4.23559
4.20908
4.18338
4.15846
4.13429
4.11085
4.08809
4.06601
4.04458
4.02376
5.16903
5.11049
5.0541
4.9998
4.9475
4.8971
4.84853
4.80169
4.75651
4.71292
4.67084
4.6302
4.59096
4.55303
4.51638
4.48094
4.44666
4.4135
4.38141
4.35034
4.32026
4.29113
4.26291
4.23556
4.20905
4.18335
4.15843
4.13426
4.11082
4.08806
4.06598
4.04455
4.02373
5.16903
5.11049
5.0541
4.99981
4.94752
4.89714
4.84858
4.80176
4.7566
4.71301
4.67094
4.63031
4.59107
4.55314
4.51649
4.48105
4.44677
4.41361
4.38152
4.35045
4.32038
4.29125
4.26303
4.23568
4.20918
4.18349
4.15858
4.13442
4.11098
4.08824
4.06617
4.04476
4.02396
5.16903
5.11051
5.05414
4.99985
4.94756
4.89718
4.84861
4.80178
4.75661
4.71303
4.67096
4.63034
4.59111
4.5532
4.51657
4.48116
4.44691
4.41378
4.38173
4.35071
4.32068
4.2916
4.26344
4.23615
4.20972
4.1841
4.15926
4.13518
4.11183
4.08918
4.06721
4.04589
4.02519
5.16903
5.1105
5.05415
4.99992
4.9477
4.89739
4.8489
4.80214
4.75704
4.71352
4.67152
4.63098
4.59183
4.55402
4.5175
4.48221
4.44812
4.41516
4.38329
4.35248
4.32268
4.29385
4.26596
4.23897
4.21284
4.18754
4.16305
4.13932
4.11634
4.09407
4.07249
4.05157
4.03129
5.16905
5.11063
5.0544
5.00025
4.94809
4.89785
4.84947
4.80288
4.75802
4.71483
4.67324
4.63319
4.59463
4.5575
4.52175
4.48731
4.45413
4.42217
4.39138
4.3617
4.33308
4.3055
4.27889
4.25322
4.22845
4.20455
4.18146
4.15917
4.13764
4.11682
4.0967
4.07725
4.05843
5.16908
5.11079
5.05488
5.00137
4.95017
4.90121
4.85441
4.80973
4.76712
4.72651
4.68784
4.65102
4.61598
4.58264
4.5509
4.52068
4.4919
4.46448
4.43833
4.41337
4.38955
4.36678
4.34501
4.32418
4.30422
4.28509
4.26673
4.24911
4.23218
4.21589
4.20022
4.18513
4.17058
5.16939
5.11358
5.06201
5.01464
4.97149
4.9325
4.89749
4.86619
4.83829
4.81345
4.79137
4.77172
4.75424
4.73865
4.72473
4.71228
4.70109
4.69101
4.68189
4.67361
4.66605
4.65912
4.65273
4.6468
4.64128
4.63609
4.63121
4.62657
4.62215
4.61791
4.61383
4.60989
4.60605
5.17809
5.16328
5.16952
5.19122
5.22442
5.26609
5.31385
5.36581
5.42054
5.47696
5.53423
5.59169
5.64884
5.70529
5.76075
5.815
5.86788
5.91927
5.96911
6.01733
6.06392
6.10887
6.15219
6.19389
6.23402
6.27259
6.30966
6.34526
6.37945
6.41227
6.44376
6.47399
6.50301
5.63861
6.43044
7.14588
7.82564
8.49465
9.14693
9.7766
10.3813
10.9609
11.5162
12.0486
12.5598
13.0511
13.5241
13.9799
14.4197
14.8446
15.2552
15.6525
16.037
16.4094
16.7703
17.1201
17.4594
17.7884
18.1077
18.4176
18.7184
19.0105
19.2942
19.5699
19.8377
20.0981
44.7794
48.3124
51.8864
55.4656
59.0311
62.5709
66.0744
69.5319
72.9346
76.2748
79.5456
82.7411
85.8565
88.8878
91.8318
94.6862
97.4492
100.12
102.698
105.183
107.575
109.876
112.087
114.209
116.244
118.194
120.061
121.847
123.555
125.187
126.745
128.232
129.651
704.635
837.993
942.85
1022.27
1081.98
1122.83
1143.39
1143.07
1123.41
1088.23
1042.57
991.552
939.426
889.11
842.204
799.264
760.187
724.553
691.879
661.745
633.839
607.943
583.901
561.577
540.835
521.526
503.486
486.544
470.528
455.275
440.632
426.462
412.641
399.06
385.622
372.239
358.836
345.349
331.721
317.91
303.885
289.627
275.133
260.414
245.497
230.425
215.256
200.066
184.941
169.982
155.299
141.007
127.224
114.064
101.633
90.025
79.3156
69.5586
60.7835
52.9944
46.1704
40.2685
35.2273
30.9726
27.4224
24.4929
22.1029
20.1773
18.6495
17.4624
16.5684
15.9292
15.5144
15.2999
15.267
15.3999
15.6844
16.1055
16.646
17.2846
17.9949
18.7453
19.4989
20.2154
20.8531
21.3707
21.7306
21.9002
21.8538
21.5737
21.0513
20.2866
19.2894
18.0785
16.6831
15.1402
13.5022
11.797
10.245
7.9562
147.72
154.992
165.515
180.524
200.842
227.023
259.217
296.753
338.085
380.966
422.724
460.668
492.504
516.66
532.474
540.172
540.689
535.39
525.788
513.305
499.129
484.148
468.959
453.918
439.203
424.878
410.941
397.36
384.089
371.079
358.282
345.651
333.135
320.689
308.264
295.818
283.311
270.712
257.995
245.147
232.165
219.057
205.846
192.566
179.265
166.003
152.852
139.895
127.223
114.931
103.117
91.8777
81.3009
71.4647
62.4311
54.2429
46.9214
40.4645
34.8482
30.0284
25.9448
22.5261
19.6948
17.373
15.486
13.9658
12.7528
11.7966
11.0562
10.4987
10.099
9.83846
9.70379
9.68625
9.78044
9.98325
10.2926
10.7059
11.2186
11.8223
12.5029
13.2402
14.0066
14.7686
15.4878
16.1237
16.6365
16.9898
17.1532
17.1043
16.8296
16.3259
15.6002
14.6699
13.5631
12.3168
10.9811
9.58861
8.32334
6.48043
30.2895
30.7171
31.3604
32.4086
34.0313
36.4047
39.592
43.8614
49.5496
56.9842
66.4389
78.0803
91.9132
107.741
125.154
143.55
162.194
180.291
197.085
211.937
224.388
234.187
241.288
245.812
248.001
248.164
246.624
243.687
239.622
234.645
228.926
222.589
215.727
208.406
200.675
192.574
184.137
175.397
166.388
157.15
147.726
138.165
128.523
118.863
109.254
99.7713
90.4934
81.5008
72.8735
64.6877
57.0125
49.9066
43.4147
37.5655
32.3696
27.8195
23.8904
20.5426
17.7251
15.3801
13.4465
11.8647
10.5787
9.53873
8.70184
8.03219
7.50066
7.08411
6.76467
6.52894
6.36731
6.27344
6.24378
6.27714
6.37437
6.5379
6.77119
7.07798
7.46115
7.92135
8.45536
9.05437
9.7027
10.3772
11.0476
11.6787
12.2322
12.6707
12.9604
13.074
12.9933
12.7097
12.226
11.5562
10.7248
9.76661
8.72688
7.63956
6.65253
5.22938
12.3781
12.4465
12.5323
12.6411
12.7863
12.9886
13.2722
13.6576
14.1627
14.8281
15.7053
16.855
18.3443
20.2456
22.6319
25.5712
29.1169
33.2966
38.1003
43.4724
49.3078
55.4562
61.7317
67.9288
73.84
79.2729
84.0642
88.0893
91.2655
93.5513
94.9411
95.4581
95.1467
94.0654
92.2806
89.8628
86.8837
83.415
79.528
75.2938
70.7835
66.0684
61.2202
56.3105
51.4101
46.5876
41.9083
37.4318
33.2105
29.2874
25.6949
22.4532
19.5703
17.0423
14.8546
12.9842
11.4018
10.0751
8.97045
8.05565
7.30093
6.67992
6.16993
5.75194
5.41027
5.13226
4.90786
4.72924
4.59051
4.48745
4.41731
4.37868
4.37141
4.39654
4.45626
4.55383
4.69346
4.88
5.11852
5.41345
5.76748
6.18007
6.64585
7.1532
7.6834
8.21094
8.70496
9.13186
9.45852
9.65571
9.70107
9.58145
9.29421
8.8481
8.2625
7.56706
6.80021
5.99326
5.26036
4.20939
7.98296
8.0004
8.01702
8.03306
8.04977
8.06977
8.09666
8.13554
8.1882
8.25895
8.35395
8.48083
8.64859
8.8674
9.14844
9.50362
9.94521
10.4852
11.1348
11.9033
12.7973
13.8194
14.967
16.231
17.5944
19.0322
20.5111
21.9911
23.4269
24.771
25.9766
27.0007
27.8066
28.3659
28.6599
28.68
28.4274
27.9127
27.1546
26.1789
25.0166
23.7028
22.2751
20.7717
19.2304
17.6869
16.1734
14.7178
13.3428
12.0652
10.8959
9.84065
8.89994
8.0704
7.34567
6.71736
6.17605
5.71194
5.31548
4.97772
4.6905
4.44661
4.23976
4.06458
3.91656
3.79198
3.68783
3.60177
3.53206
3.47754
3.43763
3.41228
3.40205
3.40806
3.43211
3.47667
3.54489
3.64056
3.76797
3.93159
4.13545
4.38237
4.67268
5.00291
5.3645
5.74297
6.11799
6.46455
6.7553
6.96357
7.06657
7.04833
6.90172
6.62989
6.24579
5.772
5.23858
4.67131
4.15449
3.41208
6.14588
6.15135
6.15467
6.15611
6.15594
6.1545
6.15234
6.1503
6.14909
6.14958
6.15286
6.16027
6.17342
6.19414
6.22452
6.26684
6.32345
6.39674
6.48895
6.60208
6.73774
6.89699
7.08025
7.28705
7.51598
7.76445
8.02863
8.30336
8.5822
8.85753
9.12078
9.36282
9.57432
9.74636
9.87083
9.94107
9.9522
9.9015
9.7886
9.61551
9.38644
9.10761
8.78678
8.43281
8.05512
7.66316
7.26595
6.87169
6.48743
6.11893
5.77057
5.44538
5.14518
4.87072
4.62187
4.39783
4.19731
4.01868
3.86015
3.71985
3.59593
3.48661
3.39023
3.3053
3.2305
3.16468
3.1069
3.05644
3.01277
2.97559
2.94484
2.92072
2.90371
2.8946
2.89457
2.90517
2.92842
2.96677
3.02314
3.10075
3.20293
3.3327
3.4921
3.68133
3.89774
4.13481
4.38154
4.62252
4.83889
5.01031
5.11748
5.14499
5.08354
4.93188
4.69687
4.39352
4.04314
3.66465
3.31767
2.81396
5.19412
5.19332
5.19112
5.1875
5.18246
5.17605
5.16836
5.15956
5.14985
5.13947
5.12868
5.11777
5.10707
5.09699
5.08799
5.0806
5.0754
5.07301
5.07407
5.07915
5.0888
5.10342
5.12324
5.14831
5.17843
5.21314
5.25167
5.29298
5.33571
5.37823
5.41867
5.45499
5.48506
5.50672
5.51793
5.51686
5.50199
5.4722
5.42687
5.36588
5.28968
5.1992
5.09588
4.98152
4.85823
4.72827
4.59399
4.45767
4.32144
4.18723
4.0567
3.93118
3.81171
3.69901
3.59353
3.49546
3.40478
3.3213
3.24467
3.17447
3.11022
3.05139
2.99746
2.94792
2.9023
2.86019
2.82123
2.78514
2.75176
2.72098
2.69285
2.66752
2.64531
2.6267
2.61238
2.60327
2.60055
2.60572
2.62056
2.64715
2.68773
2.74459
2.81969
2.9142
3.02789
3.15842
3.30068
3.44644
3.58451
3.70165
3.78406
3.81945
3.79905
3.71936
3.58279
3.39792
3.17841
2.93652
2.71293
2.38209
4.6599
4.6532
4.64573
4.63743
4.62827
4.61825
4.60738
4.59569
4.58319
4.56992
4.55593
4.54126
4.52599
4.51019
4.49395
4.47739
4.46064
4.44386
4.42722
4.41093
4.39515
4.38007
4.36583
4.35251
4.34014
4.3287
4.31804
4.30795
4.29811
4.28812
4.27749
4.26568
4.25208
4.23609
4.21709
4.19454
4.16793
4.13689
4.10115
4.0606
4.01528
3.96539
3.91127
3.85341
3.79239
3.72891
3.66368
3.59747
3.53099
3.46496
3.39999
3.33664
3.27534
3.21644
3.16019
3.10672
3.05609
3.00825
2.96311
2.92051
2.88027
2.84214
2.80592
2.77136
2.73824
2.70636
2.67555
2.64567
2.61665
2.58843
2.56104
2.53459
2.50925
2.48528
2.46309
2.44319
2.42625
2.41315
2.40493
2.40283
2.40829
2.4228
2.44782
2.48451
2.53337
2.59385
2.66385
2.7394
2.81452
2.88152
2.93173
2.95673
2.94972
2.90695
2.8284
2.71821
2.58434
2.43383
2.29366
2.0809
4.35385
4.34168
4.3292
4.31634
4.30307
4.28935
4.27517
4.26049
4.24531
4.22963
4.21345
4.19676
4.17957
4.16185
4.14362
4.12488
4.10563
4.0859
4.06572
4.04513
4.02418
4.00292
3.98141
3.9597
3.93782
3.91581
3.89366
3.87136
3.84884
3.82603
3.80282
3.77906
3.7546
3.72927
3.7029
3.67531
3.64636
3.61592
3.58392
3.55032
3.51513
3.47842
3.44031
3.40097
3.36061
3.3195
3.27789
3.23608
3.19436
3.15298
3.11221
3.07226
3.0333
2.99548
2.95888
2.92355
2.88948
2.85663
2.82494
2.79429
2.76458
2.73565
2.70736
2.67958
2.65216
2.62498
2.59794
2.57093
2.54391
2.51685
2.48974
2.46265
2.43567
2.40894
2.38268
2.35719
2.33284
2.31012
2.28963
2.2721
2.25839
2.24943
2.24619
2.24957
2.26017
2.27811
2.30268
2.33217
2.3636
2.39288
2.41502
2.42486
2.41781
2.39082
2.34301
2.27598
2.19405
2.10068
2.01353
1.8775
4.18138
4.16449
4.14754
4.13049
4.1133
4.09595
4.07841
4.06066
4.04268
4.02446
4.00599
3.98724
3.9682
3.94885
3.92916
3.90912
3.88871
3.86791
3.8467
3.82509
3.80307
3.78065
3.75783
3.73463
3.71107
3.68715
3.66289
3.63831
3.6134
3.58817
3.56261
3.53669
3.51039
3.48368
3.45654
3.42892
3.40081
3.37218
3.34304
3.31338
3.28324
3.25265
3.22169
3.19043
3.15898
3.12743
3.09591
3.06453
3.03343
3.00269
2.97243
2.94272
2.91362
2.88517
2.85739
2.83025
2.80373
2.77776
2.75229
2.72721
2.70242
2.67783
2.65331
2.62877
2.60409
2.57919
2.55398
2.52839
2.50238
2.47593
2.44901
2.42167
2.39394
2.36592
2.33772
2.30951
2.28151
2.25399
2.2273
2.20186
2.17816
2.15679
2.13834
2.12344
2.1126
2.1061
2.10386
2.10524
2.10892
2.11287
2.11446
2.11074
2.09894
2.07694
2.04381
1.99992
1.94752
1.88789
1.83273
1.74433
4.08829
4.06772
4.0472
4.02671
4.00624
3.98577
3.96526
3.94471
3.9241
3.90343
3.88267
3.86181
3.84085
3.81975
3.7985
3.77709
3.75548
3.73366
3.71162
3.68932
3.66676
3.64393
3.62081
3.59741
3.57371
3.54974
3.52548
3.50095
3.47616
3.45112
3.42583
3.40031
3.37457
3.34862
3.32247
3.29614
3.26963
3.24296
3.21616
3.18925
3.16226
3.13523
3.10821
3.08124
3.05438
3.02768
3.0012
2.97498
2.94909
2.92356
2.89842
2.87369
2.84939
2.82549
2.802
2.77885
2.75601
2.73341
2.71097
2.68861
2.66625
2.64379
2.62114
2.5982
2.5749
2.55114
2.52688
2.50204
2.4766
2.45051
2.42377
2.3964
2.36841
2.33987
2.31084
2.28142
2.25176
2.22201
2.19238
2.16312
2.13453
2.10695
2.08075
2.05635
2.03411
2.01433
1.99713
1.98238
1.96956
1.95779
1.94579
1.93204
1.91498
1.89333
1.86637
1.83401
1.79744
1.75674
1.7199
1.65977
4.04109
4.01794
3.99487
3.97187
3.94894
3.92606
3.90323
3.88043
3.85766
3.83492
3.81219
3.78946
3.76674
3.744
3.72124
3.69843
3.67558
3.65265
3.62965
3.60654
3.58332
3.55997
3.53649
3.51286
3.48908
3.46515
3.44106
3.41682
3.39243
3.36791
3.34326
3.31849
3.29362
3.26868
3.24366
3.21861
3.19353
3.16845
3.14341
3.11842
3.09352
3.06873
3.0441
3.01965
2.99541
2.97142
2.9477
2.92427
2.90116
2.87838
2.85592
2.83379
2.81196
2.79041
2.76911
2.748
2.72702
2.70612
2.68521
2.66423
2.64309
2.6217
2.59998
2.57786
2.55526
2.53211
2.50836
2.48394
2.45883
2.43299
2.40643
2.37913
2.35113
2.32244
2.29314
2.26329
2.23297
2.2023
2.17141
2.14047
2.10965
2.07919
2.04931
2.02028
1.99237
1.96581
1.94078
1.91733
1.89534
1.8745
1.85425
1.8339
1.81267
1.78984
1.76501
1.73795
1.70935
1.67868
1.6518
1.60762
4.01889
3.99413
3.96943
3.9448
3.92024
3.89573
3.87129
3.84689
3.82255
3.79827
3.77404
3.74986
3.72573
3.70164
3.67759
3.65358
3.6296
3.60563
3.58168
3.55773
3.53376
3.50979
3.48579
3.46176
3.4377
3.4136
3.38946
3.36528
3.34107
3.31683
3.29257
3.2683
3.24403
3.21978
3.19556
3.1714
3.14731
3.12331
3.09943
3.07568
3.0521
3.02871
3.00552
2.98257
2.95986
2.93743
2.91527
2.8934
2.87183
2.85054
2.82953
2.80877
2.78825
2.76793
2.74775
2.72768
2.70766
2.68761
2.66748
2.64718
2.62664
2.60579
2.58454
2.56284
2.5406
2.51777
2.49429
2.47012
2.44522
2.41958
2.39317
2.366
2.33808
2.30945
2.28014
2.25021
2.21973
2.18878
2.15746
2.12589
2.0942
2.06255
2.03109
2.00002
1.96951
1.93976
1.91094
1.88315
1.85644
1.83074
1.8059
1.78163
1.75761
1.7335
1.70912
1.68425
1.65939
1.63372
1.61192
1.57623
4.00923
3.98358
3.95797
3.93239
3.90686
3.88137
3.85593
3.83053
3.80518
3.77988
3.75464
3.72945
3.70433
3.67927
3.65427
3.62934
3.60447
3.57966
3.55491
3.53021
3.50557
3.48098
3.45643
3.43193
3.40748
3.38306
3.35869
3.33437
3.31009
3.28587
3.26172
3.23763
3.21363
3.18971
3.16591
3.14223
3.11868
3.09529
3.07206
3.04903
3.02621
3.0036
2.98124
2.95912
2.93727
2.91569
2.89439
2.87336
2.8526
2.8321
2.81184
2.79179
2.77193
2.75222
2.7326
2.71304
2.69347
2.67383
2.65405
2.63407
2.61381
2.5932
2.57218
2.55067
2.52861
2.50594
2.48262
2.4586
2.43386
2.40836
2.38209
2.35506
2.32728
2.29878
2.26958
2.23975
2.20933
2.1784
2.14705
2.11536
2.08345
2.05143
2.01944
1.9876
1.95607
1.925
1.89453
1.86478
1.83586
1.80782
1.78065
1.75429
1.72866
1.70363
1.67915
1.65508
1.63182
1.60847
1.58908
1.55757
4.00529
3.9792
3.95312
3.92706
3.90102
3.875
3.849
3.82304
3.7971
3.77121
3.74536
3.71956
3.69381
3.66812
3.6425
3.61694
3.59145
3.56604
3.5407
3.51544
3.49026
3.46516
3.44014
3.4152
3.39035
3.36559
3.34092
3.31635
3.29189
3.26753
3.24329
3.21917
3.19519
3.17135
3.14767
3.12415
3.10082
3.07769
3.05476
3.03205
3.00958
2.98735
2.96538
2.94368
2.92224
2.90107
2.88018
2.85955
2.83917
2.81903
2.79911
2.77937
2.7598
2.74034
2.72096
2.70159
2.68219
2.6627
2.64305
2.62318
2.60301
2.58249
2.56155
2.54011
2.51813
2.49555
2.47232
2.4484
2.42376
2.39837
2.37224
2.34535
2.31773
2.28938
2.26036
2.23069
2.20044
2.16967
2.13846
2.10689
2.07506
2.04306
2.01101
1.97903
1.94723
1.91575
1.88471
1.85424
1.82444
1.79541
1.76722
1.73989
1.71346
1.6879
1.66326
1.63943
1.61679
1.59441
1.57605
1.54641
4.00371
3.97742
3.95113
3.92484
3.89855
3.87227
3.846
3.81974
3.7935
3.76729
3.7411
3.71496
3.68885
3.6628
3.6368
3.61086
3.58498
3.55918
3.53345
3.5078
3.48224
3.45676
3.43138
3.4061
3.38093
3.35586
3.33091
3.30609
3.28139
3.25683
3.23242
3.20816
3.18407
3.16015
3.13642
3.11289
3.08957
3.06647
3.0436
3.02097
2.99859
2.97648
2.95463
2.93305
2.91174
2.89071
2.86994
2.84943
2.82917
2.80913
2.7893
2.76965
2.75013
2.73072
2.71137
2.69203
2.67264
2.65315
2.63349
2.61361
2.59344
2.57291
2.55197
2.53054
2.50858
2.48603
2.46285
2.43899
2.41443
2.38915
2.36314
2.33639
2.30892
2.28075
2.25191
2.22245
2.19241
2.16186
2.13087
2.09952
2.0679
2.03609
2.00421
1.97236
1.94064
1.90917
1.87808
1.84747
1.81745
1.78813
1.75959
1.73192
1.70518
1.67939
1.65465
1.63088
1.60845
1.58642
1.56842
1.53945
4.00301
3.97663
3.95025
3.92385
3.89745
3.87105
3.84464
3.81825
3.79186
3.76548
3.73913
3.7128
3.68651
3.66025
3.63404
3.60788
3.58177
3.55573
3.52976
3.50386
3.47805
3.45232
3.42669
3.40116
3.37574
3.35044
3.32525
3.3002
3.27529
3.25053
3.22593
3.2015
3.17725
3.15319
3.12933
3.10569
3.08226
3.05907
3.03613
3.01343
2.991
2.96884
2.94695
2.92533
2.90399
2.88292
2.86211
2.84156
2.82125
2.80117
2.78128
2.76156
2.74198
2.72249
2.70306
2.68363
2.66416
2.64458
2.62485
2.60489
2.58465
2.56407
2.54307
2.52162
2.49965
2.4771
2.45394
2.43013
2.40564
2.38045
2.35455
2.32794
2.30062
2.27263
2.24398
2.21473
2.18492
2.15461
2.12387
2.09278
2.06143
2.02989
1.99827
1.96666
1.93517
1.90391
1.87299
1.8425
1.81257
1.78329
1.75475
1.72704
1.70025
1.67443
1.64967
1.62591
1.60353
1.58158
1.56364
1.53476
4.00261
3.97619
3.94976
3.92331
3.89686
3.8704
3.84393
3.81746
3.791
3.76454
3.7381
3.71168
3.68528
3.65892
3.63259
3.6063
3.58006
3.55388
3.52776
3.50171
3.47573
3.44984
3.42404
3.39833
3.37273
3.34725
3.32188
3.29665
3.27156
3.24663
3.22185
3.19725
3.17283
3.14861
3.12459
3.10079
3.07722
3.05389
3.0308
3.00797
2.98541
2.96311
2.94109
2.91934
2.89787
2.87667
2.85574
2.83506
2.81461
2.79439
2.77436
2.7545
2.73477
2.71514
2.69557
2.676
2.65639
2.63668
2.61683
2.59676
2.57642
2.55574
2.53468
2.51318
2.49117
2.46862
2.44547
2.42169
2.39726
2.37215
2.34636
2.31987
2.29271
2.26489
2.23644
2.2074
2.17782
2.14776
2.11728
2.08647
2.0554
2.02416
1.99283
1.96152
1.93032
1.89934
1.86868
1.83843
1.80871
1.77961
1.75122
1.72363
1.69692
1.67115
1.64642
1.62268
1.60028
1.5783
1.56029
1.53123
4.0023
3.97587
3.94941
3.92293
3.89644
3.86995
3.84344
3.81694
3.79043
3.76393
3.73744
3.71096
3.68451
3.65807
3.63167
3.60531
3.57899
3.55271
3.5265
3.50034
3.47426
3.44825
3.42232
3.39649
3.37076
3.34514
3.31964
3.29426
3.26903
3.24394
3.21901
3.19425
3.16968
3.1453
3.12112
3.09716
3.07342
3.04993
3.02668
3.00368
2.98095
2.95849
2.9363
2.91438
2.89274
2.87136
2.85025
2.82939
2.80877
2.78836
2.76815
2.74811
2.7282
2.70839
2.68864
2.6689
2.64913
2.62927
2.60926
2.58906
2.5686
2.54783
2.52669
2.50512
2.48307
2.4605
2.43735
2.41361
2.38923
2.3642
2.3385
2.31214
2.28513
2.25747
2.22921
2.20039
2.17104
2.14123
2.11102
2.08049
2.04971
2.01876
1.98774
1.95674
1.92586
1.89518
1.86481
1.83485
1.80538
1.77652
1.74834
1.72092
1.69434
1.66867
1.644
1.62026
1.59782
1.57576
1.55762
1.52826
4.00204
3.97558
3.9491
3.9226
3.89609
3.86957
3.84304
3.8165
3.78997
3.76344
3.73691
3.71039
3.68389
3.65742
3.63096
3.60454
3.57816
3.55183
3.52554
3.49931
3.47314
3.44705
3.42103
3.3951
3.36927
3.34354
3.31792
3.29242
3.26706
3.24185
3.21678
3.19189
3.16717
3.14264
3.11831
3.09419
3.0703
3.04663
3.02322
3.00005
2.97714
2.9545
2.93213
2.91002
2.88819
2.86662
2.84532
2.82426
2.80344
2.78283
2.76242
2.74218
2.72207
2.70207
2.68213
2.66221
2.64226
2.62223
2.60208
2.58173
2.56115
2.54027
2.51904
2.4974
2.47531
2.45271
2.42957
2.40584
2.38151
2.35656
2.33096
2.30472
2.27785
2.25036
2.22229
2.19368
2.16456
2.13499
2.10505
2.07479
2.0443
2.01366
1.98294
1.95225
1.92168
1.89131
1.86124
1.83157
1.80238
1.77376
1.7458
1.71857
1.69214
1.66657
1.64195
1.61822
1.59572
1.57356
1.55526
1.52552
4.00179
3.97531
3.94882
3.9223
3.89577
3.86922
3.84267
3.81611
3.78955
3.76299
3.73643
3.70988
3.68335
3.65683
3.63034
3.60388
3.57744
3.55105
3.52471
3.49842
3.47218
3.44601
3.41992
3.39391
3.36799
3.34216
3.31645
3.29085
3.26538
3.24005
3.21486
3.18984
3.16499
3.14032
3.11585
3.09158
3.06754
3.04372
3.02013
2.9968
2.97371
2.95089
2.92834
2.90605
2.88402
2.86226
2.84075
2.81949
2.79847
2.77766
2.75704
2.73659
2.71629
2.69609
2.67595
2.65585
2.63572
2.61553
2.59521
2.57473
2.55402
2.53303
2.51171
2.49
2.46786
2.44524
2.4221
2.3984
2.37411
2.34922
2.32372
2.2976
2.27087
2.24356
2.21567
2.18726
2.15837
2.12905
2.09937
2.06938
2.03918
2.00883
1.97842
1.94803
1.91776
1.8877
1.85793
1.82853
1.79961
1.77124
1.74349
1.71644
1.69016
1.66468
1.64011
1.61636
1.59379
1.57149
1.553
1.52284
4.00156
3.97506
3.94855
3.92201
3.89546
3.8689
3.84232
3.81574
3.78915
3.76257
3.73598
3.70941
3.68284
3.65629
3.62976
3.60325
3.57678
3.55034
3.52394
3.49759
3.4713
3.44507
3.4189
3.39282
3.36681
3.34091
3.3151
3.28941
3.26384
3.2384
3.21311
3.18797
3.163
3.1382
3.1136
3.08919
3.065
3.04103
3.01729
2.99379
2.97054
2.94754
2.92481
2.90233
2.88012
2.85817
2.83647
2.81501
2.79378
2.77277
2.75195
2.7313
2.7108
2.6904
2.67008
2.64979
2.62949
2.60913
2.58866
2.56804
2.5472
2.52611
2.5047
2.48292
2.46073
2.43808
2.41494
2.39126
2.36703
2.34221
2.3168
2.2908
2.26422
2.23706
2.20936
2.18116
2.15249
2.12341
2.09399
2.06427
2.03435
2.00429
1.97418
1.94409
1.91412
1.88435
1.85486
1.82574
1.79707
1.76893
1.74138
1.7145
1.68833
1.66293
1.63837
1.61459
1.59191
1.56944
1.55075
1.52011
4.00133
3.97483
3.94829
3.92174
3.89517
3.86859
3.84199
3.81539
3.78878
3.76217
3.73556
3.70895
3.68235
3.65577
3.6292
3.60266
3.57614
3.54966
3.52321
3.49681
3.47046
3.44417
3.41794
3.39179
3.36571
3.33973
3.31384
3.28806
3.2624
3.23686
3.21147
3.18622
3.16113
3.13622
3.11149
3.08695
3.06262
3.03851
3.01462
2.99096
2.96755
2.94439
2.92149
2.89884
2.87644
2.8543
2.83241
2.81076
2.78934
2.76814
2.74712
2.72628
2.70558
2.68499
2.66449
2.64402
2.62354
2.60302
2.58241
2.56165
2.54069
2.5195
2.498
2.47616
2.45393
2.43126
2.40812
2.38446
2.36028
2.33553
2.31023
2.28435
2.25791
2.23092
2.20341
2.17541
2.14697
2.11813
2.08896
2.05951
2.02987
2.00009
1.97027
1.94047
1.91079
1.8813
1.85208
1.82322
1.79478
1.76685
1.73948
1.71273
1.68666
1.6613
1.63672
1.61287
1.59004
1.56736
1.54842
1.51725
4.00113
3.9746
3.94806
3.92149
3.8949
3.8683
3.84168
3.81506
3.78842
3.76179
3.73515
3.70852
3.68189
3.65528
3.62868
3.6021
3.57554
3.54901
3.52252
3.49607
3.46967
3.44332
3.41704
3.39082
3.36467
3.33862
3.31265
3.28679
3.26104
3.23541
3.20992
3.18457
3.15938
3.13435
3.1095
3.08484
3.06038
3.03613
3.0121
2.9883
2.96474
2.94142
2.91835
2.89553
2.87296
2.85065
2.82858
2.80674
2.78514
2.76374
2.74254
2.72151
2.70063
2.67986
2.65917
2.63853
2.6179
2.59722
2.57647
2.55558
2.53451
2.51321
2.49164
2.46974
2.44747
2.42479
2.40166
2.37804
2.35391
2.32925
2.30404
2.27829
2.252