/*--------------------------------*- C++ -*----------------------------------*\
| =========                 |                                                 |
| \\      /  F ield         | OpenFOAM: The Open Source CFD Toolbox           |
|  \\    /   O peration     | Version:  2.1.1                                 |
|   \\  /    A nd           | Web:      www.OpenFOAM.org                      |
|    \\/     M anipulation  |                                                 |
\*---------------------------------------------------------------------------*/
FoamFile
{
    version     2.0;
    format      ascii;
    class       volScalarField;
    location    "0.165";
    object      k;
}
// * * * * * * * * * * * * * * * * * * * * * * * * * * * * * * * * * * * * * //

dimensions      [0 2 -2 0 0 0 0];

internalField   nonuniform List<scalar> 
6820
(
0.288909
0.351398
0.415005
0.477466
0.53686
0.591556
0.640369
0.682625
0.718118
0.747021
0.769779
0.787009
0.799409
0.807701
0.812573
0.81466
0.814526
0.812657
0.809464
0.805289
0.800412
0.795059
0.789411
0.783609
0.777762
0.771954
0.766244
0.760688
0.755252
0.750259
0.744223
0.744287
0.715957
0.265532
0.269396
0.270523
0.271341
0.272559
0.274215
0.276226
0.278478
0.280859
0.283284
0.285698
0.288069
0.290388
0.292661
0.294902
0.297128
0.299361
0.301618
0.303915
0.306266
0.308679
0.311162
0.313716
0.316344
0.319045
0.321821
0.324671
0.327604
0.330632
0.333815
0.337166
0.341186
0.345332
0.262038
0.264253
0.263596
0.261557
0.259
0.256318
0.253627
0.250938
0.24824
0.245525
0.242794
0.240061
0.237345
0.234668
0.232052
0.229518
0.227085
0.224769
0.222581
0.220532
0.218627
0.216871
0.215265
0.213808
0.212499
0.211335
0.210313
0.209429
0.20868
0.208068
0.20758
0.207247
0.207007
0.259885
0.260272
0.259797
0.258535
0.256829
0.254891
0.252833
0.25071
0.248547
0.246358
0.244152
0.241935
0.239713
0.237495
0.235287
0.233097
0.230932
0.2288
0.226708
0.22466
0.222661
0.220717
0.21883
0.217003
0.215238
0.213537
0.211899
0.210325
0.208814
0.207366
0.205977
0.204651
0.203375
0.259299
0.258404
0.2576
0.256567
0.255295
0.25385
0.252292
0.250662
0.248984
0.247277
0.245551
0.243815
0.242075
0.240335
0.238602
0.236878
0.235167
0.233473
0.2318
0.23015
0.228525
0.226929
0.225363
0.223828
0.222327
0.22086
0.219428
0.218032
0.216672
0.215348
0.21406
0.21281
0.211596
0.259224
0.257848
0.256623
0.255437
0.254227
0.25297
0.251663
0.250313
0.248929
0.247523
0.246101
0.244671
0.243237
0.241805
0.240378
0.238959
0.23755
0.236154
0.234773
0.233408
0.232062
0.230736
0.22943
0.228147
0.226886
0.22565
0.224437
0.223249
0.222086
0.220949
0.219838
0.218753
0.217696
0.259217
0.257715
0.256309
0.25498
0.253698
0.252442
0.251196
0.249951
0.248704
0.247455
0.246205
0.244956
0.24371
0.24247
0.241237
0.240014
0.238801
0.237601
0.236415
0.235244
0.234088
0.232949
0.231827
0.230723
0.229638
0.228572
0.227525
0.226498
0.225491
0.224504
0.223538
0.222594
0.221671
0.259218
0.25769
0.256225
0.254822
0.253477
0.252181
0.250924
0.249696
0.248492
0.247306
0.246137
0.244981
0.24384
0.242711
0.241596
0.240494
0.239406
0.238333
0.237275
0.236231
0.235204
0.234193
0.233198
0.23222
0.231258
0.230314
0.229387
0.228477
0.227585
0.22671
0.225854
0.225016
0.224196
0.259218
0.257686
0.256207
0.25478
0.253405
0.25208
0.250799
0.24956
0.248357
0.247185
0.246042
0.244925
0.243831
0.242758
0.241705
0.240672
0.239657
0.238661
0.237682
0.23672
0.235776
0.234849
0.233939
0.233046
0.23217
0.23131
0.230467
0.22964
0.228831
0.228037
0.227261
0.2265
0.225757
0.259218
0.257686
0.256203
0.254769
0.253384
0.252045
0.250751
0.2495
0.248289
0.247114
0.245975
0.244867
0.243789
0.242738
0.241713
0.240713
0.239736
0.23878
0.237846
0.236932
0.236038
0.235162
0.234305
0.233467
0.232646
0.231842
0.231055
0.230285
0.229532
0.228795
0.228074
0.227369
0.22668
0.259218
0.257686
0.256202
0.254767
0.253378
0.252035
0.250735
0.249477
0.24826
0.24708
0.245938
0.244829
0.243754
0.242709
0.241694
0.240706
0.239744
0.238808
0.237895
0.237005
0.236137
0.23529
0.234464
0.233657
0.232868
0.232099
0.231347
0.230613
0.229896
0.229195
0.228511
0.227843
0.227191
0.259218
0.257685
0.256201
0.254766
0.253376
0.252031
0.250729
0.249469
0.248248
0.247066
0.24592
0.24481
0.243733
0.242688
0.241674
0.24069
0.239733
0.238803
0.237899
0.23702
0.236164
0.23533
0.234519
0.233728
0.232957
0.232206
0.231474
0.230761
0.230065
0.229386
0.228724
0.228078
0.227449
0.259218
0.257685
0.256201
0.254765
0.253375
0.25203
0.250727
0.249465
0.248243
0.24706
0.245912
0.2448
0.243722
0.242676
0.241662
0.240677
0.239721
0.238793
0.237892
0.237015
0.236164
0.235336
0.23453
0.233747
0.232984
0.232242
0.23152
0.230816
0.230131
0.229464
0.228814
0.228181
0.227564
0.259218
0.257685
0.256201
0.254764
0.253374
0.252028
0.250725
0.249463
0.248241
0.247056
0.245908
0.244795
0.243716
0.242669
0.241654
0.240669
0.239713
0.238784
0.237883
0.237007
0.236157
0.23533
0.234527
0.233746
0.232986
0.232248
0.231529
0.23083
0.23015
0.229488
0.228844
0.228217
0.227607
0.259218
0.257685
0.2562
0.254764
0.253374
0.252028
0.250724
0.249462
0.248239
0.247054
0.245905
0.244792
0.243712
0.242665
0.241649
0.240663
0.239707
0.238778
0.237876
0.237
0.23615
0.235323
0.23452
0.23374
0.232981
0.232243
0.231526
0.230829
0.23015
0.22949
0.228848
0.228224
0.227616
0.259218
0.257685
0.2562
0.254764
0.253373
0.252027
0.250723
0.249461
0.248237
0.247052
0.245903
0.244789
0.243709
0.242662
0.241645
0.240659
0.239702
0.238773
0.237871
0.236994
0.236143
0.235317
0.234513
0.233733
0.232974
0.232237
0.231519
0.230822
0.230144
0.229485
0.228843
0.228219
0.227612
0.259218
0.257685
0.2562
0.254763
0.253373
0.252026
0.250722
0.24946
0.248236
0.247051
0.245901
0.244787
0.243707
0.242659
0.241642
0.240656
0.239698
0.238768
0.237866
0.236989
0.236138
0.235311
0.234507
0.233726
0.232967
0.23223
0.231512
0.230815
0.230137
0.229477
0.228835
0.228211
0.227604
0.259218
0.257684
0.2562
0.254763
0.253372
0.252026
0.250722
0.249459
0.248235
0.247049
0.2459
0.244785
0.243705
0.242656
0.241639
0.240652
0.239695
0.238765
0.237862
0.236985
0.236133
0.235306
0.234502
0.233721
0.232961
0.232223
0.231506
0.230808
0.230129
0.229469
0.228827
0.228203
0.227595
0.259218
0.257684
0.2562
0.254763
0.253372
0.252025
0.250721
0.249458
0.248234
0.247048
0.245898
0.244783
0.243702
0.242654
0.241637
0.24065
0.239691
0.238761
0.237858
0.236981
0.236129
0.235301
0.234497
0.233715
0.232956
0.232217
0.231499
0.230801
0.230122
0.229462
0.228819
0.228194
0.227586
0.259218
0.257684
0.2562
0.254763
0.253371
0.252025
0.25072
0.249457
0.248233
0.247047
0.245897
0.244782
0.243701
0.242652
0.241634
0.240647
0.239688
0.238758
0.237855
0.236977
0.236125
0.235297
0.234492
0.23371
0.23295
0.232211
0.231493
0.230795
0.230115
0.229454
0.228812
0.228186
0.227577
0.259218
0.257684
0.256199
0.254762
0.253371
0.252024
0.25072
0.249456
0.248232
0.247046
0.245896
0.24478
0.243699
0.24265
0.241632
0.240645
0.239686
0.238755
0.237851
0.236974
0.236121
0.235293
0.234488
0.233706
0.232945
0.232206
0.231487
0.230789
0.230109
0.229448
0.228804
0.228179
0.227569
0.259218
0.257684
0.256199
0.254762
0.253371
0.252024
0.250719
0.249456
0.248231
0.247045
0.245894
0.244779
0.243697
0.242648
0.24163
0.240642
0.239683
0.238752
0.237848
0.23697
0.236118
0.235289
0.234484
0.233701
0.232941
0.232201
0.231482
0.230783
0.230103
0.229441
0.228798
0.228171
0.227562
0.259218
0.257684
0.256199
0.254762
0.253371
0.252024
0.250719
0.249455
0.248231
0.247044
0.245893
0.244778
0.243696
0.242647
0.241629
0.24064
0.239681
0.23875
0.237846
0.236968
0.236114
0.235286
0.23448
0.233697
0.232936
0.232196
0.231477
0.230778
0.230097
0.229435
0.228791
0.228165
0.227555
0.259218
0.257684
0.256199
0.254762
0.253371
0.252023
0.250719
0.249455
0.24823
0.247043
0.245893
0.244777
0.243695
0.242645
0.241627
0.240639
0.239679
0.238748
0.237843
0.236965
0.236112
0.235282
0.234477
0.233694
0.232932
0.232192
0.231473
0.230773
0.230092
0.22943
0.228785
0.228158
0.227548
0.259218
0.257684
0.256199
0.254762
0.25337
0.252023
0.250718
0.249454
0.24823
0.247043
0.245892
0.244776
0.243694
0.242644
0.241626
0.240637
0.239677
0.238746
0.237841
0.236962
0.236109
0.235279
0.234473
0.23369
0.232929
0.232188
0.231468
0.230768
0.230087
0.229424
0.22878
0.228152
0.227542
0.259218
0.257684
0.256199
0.254762
0.25337
0.252023
0.250718
0.249454
0.248229
0.247042
0.245891
0.244775
0.243693
0.242643
0.241624
0.240636
0.239676
0.238744
0.237839
0.23696
0.236107
0.235277
0.234471
0.233687
0.232925
0.232185
0.231464
0.230764
0.230082
0.22942
0.228775
0.228147
0.227536
0.259218
0.257684
0.256199
0.254762
0.25337
0.252023
0.250718
0.249454
0.248229
0.247042
0.245891
0.244775
0.243692
0.242642
0.241623
0.240634
0.239675
0.238743
0.237837
0.236958
0.236104
0.235274
0.234468
0.233684
0.232922
0.232181
0.231461
0.23076
0.230078
0.229415
0.22877
0.228142
0.227531
0.259218
0.257684
0.256199
0.254762
0.25337
0.252023
0.250718
0.249454
0.248229
0.247041
0.24589
0.244774
0.243692
0.242642
0.241623
0.240634
0.239674
0.238741
0.237836
0.236957
0.236103
0.235273
0.234466
0.233682
0.23292
0.232179
0.231458
0.230757
0.230075
0.229411
0.228766
0.228138
0.227526
0.259218
0.257684
0.256199
0.254762
0.25337
0.252023
0.250718
0.249453
0.248228
0.247041
0.24589
0.244774
0.243691
0.242641
0.241622
0.240633
0.239672
0.23874
0.237835
0.236955
0.236101
0.235271
0.234464
0.23368
0.232917
0.232176
0.231455
0.230754
0.230072
0.229408
0.228762
0.228134
0.227522
0.259218
0.257684
0.256199
0.254762
0.25337
0.252023
0.250718
0.249454
0.248229
0.247041
0.24589
0.244774
0.243692
0.242641
0.241622
0.240633
0.239673
0.23874
0.237835
0.236955
0.236101
0.23527
0.234463
0.233679
0.232916
0.232175
0.231454
0.230752
0.23007
0.229406
0.22876
0.228131
0.227519
0.259218
0.257684
0.256199
0.254762
0.25337
0.252023
0.250718
0.249453
0.248228
0.247041
0.24589
0.244774
0.243691
0.242641
0.241622
0.240632
0.239672
0.23874
0.237834
0.236955
0.2361
0.23527
0.234463
0.233678
0.232916
0.232174
0.231453
0.230751
0.230068
0.229404
0.228758
0.228129
0.227517
0.259218
0.257684
0.256199
0.254762
0.253371
0.252024
0.25072
0.249456
0.248231
0.247044
0.245894
0.244777
0.243695
0.242645
0.241625
0.240636
0.239676
0.238743
0.237838
0.236958
0.236103
0.235273
0.234465
0.233681
0.232918
0.232176
0.231454
0.230753
0.23007
0.229405
0.228759
0.228129
0.227517
0.259218
0.257685
0.2562
0.254764
0.253373
0.252026
0.250721
0.249457
0.248232
0.247046
0.245895
0.244779
0.243697
0.242647
0.241628
0.240639
0.239679
0.238746
0.237841
0.236961
0.236107
0.235276
0.234469
0.233684
0.23292
0.232178
0.231456
0.230754
0.23007
0.229405
0.228757
0.228127
0.227514
0.259218
0.257685
0.256201
0.254766
0.253378
0.252033
0.250731
0.249469
0.248246
0.24706
0.24591
0.244795
0.243713
0.242663
0.241644
0.240654
0.239693
0.23876
0.237854
0.236973
0.236117
0.235285
0.234475
0.233689
0.232923
0.232178
0.231454
0.230749
0.230062
0.229394
0.228743
0.22811
0.227492
0.259219
0.257689
0.25621
0.254777
0.25339
0.252046
0.250743
0.249482
0.248259
0.247074
0.245924
0.244809
0.243726
0.242676
0.241655
0.240664
0.239701
0.238765
0.237855
0.23697
0.236109
0.235271
0.234456
0.233662
0.232889
0.232137
0.231404
0.23069
0.229995
0.229317
0.228656
0.228012
0.227385
0.25922
0.257694
0.256221
0.254799
0.253423
0.252089
0.250795
0.249539
0.248318
0.247131
0.245978
0.244857
0.243767
0.242706
0.241674
0.240669
0.239691
0.238739
0.237811
0.236907
0.236026
0.235167
0.234331
0.233515
0.232719
0.231943
0.231186
0.230448
0.229727
0.229024
0.228338
0.227669
0.227015
0.259229
0.257738
0.256292
0.254882
0.253508
0.252172
0.250871
0.249603
0.248368
0.247162
0.245985
0.244837
0.243716
0.242621
0.241552
0.240509
0.23949
0.238495
0.237524
0.236575
0.235649
0.234744
0.23386
0.232997
0.232155
0.231331
0.230527
0.229741
0.228974
0.228224
0.227491
0.226775
0.226075
0.259265
0.257822
0.256453
0.255125
0.253805
0.252483
0.251164
0.249855
0.248562
0.247291
0.246046
0.244828
0.24364
0.242481
0.241351
0.240249
0.239175
0.238127
0.237106
0.23611
0.235138
0.234189
0.233263
0.232359
0.231476
0.230614
0.229772
0.22895
0.228146
0.227362
0.226595
0.225846
0.225114
0.259599
0.258632
0.257578
0.256541
0.255587
0.254713
0.253905
0.25315
0.252443
0.251781
0.251162
0.250587
0.250053
0.249561
0.24911
0.248697
0.248321
0.247981
0.247674
0.2474
0.247155
0.24694
0.246751
0.246586
0.246446
0.246328
0.24623
0.246152
0.246091
0.246048
0.246021
0.246009
0.246011
0.266719
0.280569
0.294241
0.307622
0.320668
0.333362
0.345692
0.357649
0.369224
0.380413
0.391212
0.40162
0.411639
0.421272
0.430523
0.439399
0.447906
0.456052
0.463847
0.4713
0.47842
0.485218
0.491706
0.497892
0.503789
0.509408
0.514758
0.519851
0.524697
0.529306
0.533689
0.537855
0.541817
0.844018
1.01373
1.18398
1.35604
1.52802
1.69123
1.83494
1.95124
2.03708
2.09452
2.12899
2.14726
2.15556
2.15858
2.15924
2.15896
2.15823
2.15715
2.15572
2.15409
2.1525
2.15126
2.15064
2.1508
2.15179
2.15352
2.15579
2.15833
2.1608
2.16284
2.16406
2.16407
2.16245
2.15879
2.15267
2.14368
2.1314
2.11546
2.09546
2.07109
2.04202
2.00801
1.96887
1.92448
1.8748
1.81989
1.75993
1.69518
1.62604
1.55305
1.47683
1.39815
1.31787
1.23693
1.15632
1.07707
1.00019
0.926627
0.857229
0.792711
0.733618
0.680309
0.63295
0.59153
0.555884
0.525731
0.500718
0.480457
0.464563
0.45268
0.444499
0.439768
0.438289
0.43991
0.444515
0.452001
0.462256
0.475125
0.490387
0.507726
0.52671
0.546786
0.567279
0.587419
0.606366
0.623251
0.637217
0.647458
0.653256
0.65401
0.649264
0.638724
0.622284
0.600035
0.572308
0.539633
0.502966
0.462697
0.424335
0.363996
0.354153
0.367756
0.388034
0.418002
0.460474
0.517918
0.591933
0.682433
0.78726
0.902306
1.02202
1.14026
1.25128
1.3506
1.43551
1.50525
1.56066
1.60366
1.63668
1.66214
1.6821
1.69814
1.71135
1.7224
1.73166
1.73933
1.74548
1.75012
1.75321
1.75466
1.75434
1.75208
1.74766
1.74083
1.73131
1.71882
1.70307
1.68378
1.66069
1.63357
1.60226
1.56663
1.52661
1.48222
1.43358
1.38086
1.32439
1.26456
1.20189
1.13701
1.07064
1.00358
0.93668
0.870835
0.806924
0.745783
0.688163
0.634686
0.585821
0.541861
0.502922
0.468948
0.439744
0.415008
0.394376
0.377455
0.363862
0.353249
0.345314
0.33982
0.336586
0.335495
0.336486
0.339542
0.344686
0.35196
0.361408
0.37305
0.38685
0.402686
0.420316
0.439361
0.459291
0.479435
0.49901
0.517154
0.532984
0.54564
0.554336
0.558403
0.55732
0.550749
0.538552
0.520814
0.497871
0.47029
0.439021
0.404602
0.371873
0.320914
0.206651
0.20643
0.206841
0.208288
0.21119
0.21608
0.223499
0.234356
0.249784
0.270996
0.299163
0.335237
0.379741
0.432583
0.492942
0.559288
0.629516
0.701193
0.771852
0.839276
0.901728
0.958064
1.00774
1.05072
1.08735
1.11816
1.14378
1.16479
1.18166
1.19478
1.20438
1.21059
1.21347
1.21301
1.20915
1.20182
1.19093
1.17641
1.1582
1.13626
1.1106
1.08127
1.0484
1.01216
0.972828
0.930733
0.886307
0.840056
0.792563
0.744468
0.696456
0.649228
0.60347
0.559824
0.518851
0.481003
0.4466
0.415816
0.388684
0.365109
0.344894
0.327773
0.313438
0.301577
0.29189
0.284106
0.277995
0.273372
0.270095
0.268067
0.267231
0.267573
0.269116
0.271917
0.276064
0.281667
0.288852
0.29774
0.308424
0.320945
0.335249
0.35116
0.368349
0.386321
0.404425
0.421884
0.437841
0.451419
0.461782
0.468191
0.470053
0.466962
0.458727
0.445399
0.427286
0.404955
0.379315
0.350987
0.324088
0.282584
0.201958
0.200444
0.199029
0.197715
0.196536
0.195558
0.194867
0.194563
0.194761
0.195641
0.197432
0.200415
0.20492
0.21132
0.220018
0.23142
0.245897
0.263734
0.28507
0.309849
0.337791
0.368385
0.400931
0.434589
0.468464
0.501673
0.533414
0.563013
0.589937
0.613806
0.634365
0.651468
0.665046
0.675083
0.681597
0.684629
0.684235
0.680488
0.673483
0.663338
0.650205
0.634278
0.615794
0.595038
0.572347
0.548105
0.522734
0.496692
0.470447
0.444471
0.419211
0.395072
0.372395
0.351443
0.33239
0.315321
0.300238
0.287073
0.275706
0.265983
0.257736
0.250795
0.244999
0.240202
0.23628
0.233128
0.230665
0.228831
0.227588
0.226917
0.226824
0.227332
0.228489
0.230364
0.233048
0.236655
0.241316
0.247173
0.254365
0.263014
0.273192
0.284888
0.297977
0.312182
0.327064
0.342022
0.356324
0.36916
0.379706
0.387192
0.390968
0.390559
0.385705
0.376393
0.362874
0.345663
0.325582
0.303264
0.282079
0.249579
0.210231
0.208714
0.207222
0.205746
0.204287
0.202857
0.201472
0.200154
0.198921
0.197799
0.196824
0.196041
0.195503
0.195275
0.195427
0.196043
0.197213
0.199032
0.2016
0.205015
0.209367
0.21473
0.22115
0.228637
0.237156
0.246614
0.256866
0.26771
0.278899
0.290153
0.301175
0.311665
0.321341
0.329946
0.337263
0.343116
0.347379
0.349976
0.350876
0.350098
0.347707
0.343807
0.338543
0.332092
0.324657
0.31646
0.307733
0.298709
0.28961
0.280636
0.271963
0.263731
0.256044
0.248971
0.242546
0.236775
0.231644
0.227118
0.223156
0.219708
0.216724
0.214155
0.211957
0.210089
0.208517
0.207216
0.206165
0.205353
0.20478
0.204451
0.204385
0.20461
0.205169
0.206116
0.207524
0.20948
0.212087
0.215463
0.219735
0.225031
0.231463
0.239103
0.247957
0.257928
0.268791
0.280167
0.291533
0.302245
0.311586
0.318839
0.323353
0.324616
0.322303
0.316329
0.306854
0.294298
0.279351
0.262578
0.246633
0.22217
0.216497
0.215139
0.213779
0.212421
0.211066
0.209715
0.208369
0.207034
0.205714
0.204419
0.203156
0.201939
0.20078
0.199697
0.198707
0.197833
0.197096
0.196521
0.196131
0.195952
0.196008
0.196319
0.196907
0.197785
0.198964
0.200447
0.202224
0.20428
0.206584
0.209093
0.211754
0.214501
0.21726
0.219952
0.222496
0.224813
0.226829
0.228482
0.229723
0.230518
0.230849
0.230719
0.230145
0.22916
0.22781
0.226152
0.224247
0.22216
0.219954
0.217689
0.215419
0.213189
0.211036
0.208988
0.207065
0.205278
0.203632
0.202127
0.200758
0.199518
0.198397
0.197384
0.19647
0.195646
0.194903
0.194236
0.193642
0.193123
0.192684
0.192334
0.192089
0.191972
0.192013
0.192249
0.192731
0.193519
0.194685
0.196313
0.198501
0.201349
0.204959
0.209418
0.214783
0.221051
0.228141
0.235861
0.243895
0.251808
0.259068
0.265091
0.269306
0.271226
0.270503
0.266986
0.260742
0.252067
0.241487
0.22945
0.217962
0.200205
0.220621
0.219429
0.218229
0.217021
0.215806
0.214584
0.213355
0.212124
0.210891
0.209661
0.208438
0.207226
0.206031
0.204857
0.203713
0.202604
0.201541
0.200533
0.199587
0.198715
0.197926
0.197229
0.196631
0.196141
0.195763
0.195501
0.195356
0.195327
0.195409
0.195595
0.195873
0.19623
0.196649
0.19711
0.197592
0.198073
0.19853
0.198941
0.199288
0.199553
0.199723
0.199789
0.199747
0.199596
0.19934
0.198988
0.198551
0.198041
0.197473
0.196862
0.196222
0.195567
0.194908
0.194255
0.193616
0.192994
0.192394
0.191817
0.191261
0.190724
0.190203
0.189695
0.189197
0.188703
0.188212
0.187723
0.187235
0.186749
0.186272
0.185808
0.18537
0.184971
0.184631
0.184376
0.184238
0.184255
0.184476
0.184959
0.18577
0.186981
0.18867
0.190912
0.193767
0.197267
0.2014
0.206084
0.211156
0.216356
0.221337
0.225686
0.228967
0.230773
0.230788
0.228831
0.224895
0.219153
0.211969
0.203657
0.195681
0.18317
0.223262
0.222199
0.221124
0.220039
0.218944
0.217841
0.216729
0.215611
0.214488
0.21336
0.21223
0.2111
0.209972
0.20885
0.207736
0.206634
0.205548
0.204482
0.203441
0.20243
0.201453
0.200515
0.199622
0.198778
0.197986
0.19725
0.196573
0.195956
0.195399
0.194903
0.194464
0.194081
0.193749
0.193463
0.193216
0.193001
0.192812
0.19264
0.192478
0.19232
0.192159
0.19199
0.191809
0.191612
0.191398
0.191167
0.190919
0.190656
0.190379
0.190091
0.189795
0.189493
0.189186
0.188876
0.188564
0.188249
0.18793
0.187606
0.187274
0.186931
0.186574
0.186199
0.185804
0.185385
0.184939
0.184465
0.183962
0.183432
0.182875
0.182296
0.181701
0.181099
0.180502
0.179925
0.179389
0.178919
0.178545
0.178305
0.178242
0.178408
0.178856
0.179643
0.18082
0.182426
0.184473
0.186937
0.18974
0.192743
0.195738
0.198461
0.200614
0.201898
0.20206
0.20093
0.198459
0.194728
0.189968
0.184366
0.17897
0.17034
0.224909
0.223944
0.222968
0.221982
0.220986
0.219981
0.218966
0.217943
0.216913
0.215876
0.214834
0.213789
0.212741
0.211693
0.210646
0.209602
0.208563
0.207531
0.206509
0.205499
0.204505
0.203529
0.202574
0.201643
0.200739
0.199865
0.199024
0.198217
0.197446
0.196713
0.196018
0.195361
0.194743
0.194162
0.193617
0.193106
0.192626
0.192176
0.191753
0.191354
0.190975
0.190616
0.190272
0.189943
0.189626
0.189319
0.189022
0.188733
0.188452
0.188176
0.187905
0.187638
0.187373
0.187109
0.186842
0.186571
0.186293
0.186003
0.185699
0.185376
0.185031
0.18466
0.184258
0.183823
0.183352
0.182841
0.182291
0.181699
0.181066
0.180394
0.179686
0.178947
0.178183
0.177405
0.176623
0.175854
0.175117
0.174436
0.173838
0.173358
0.173033
0.172902
0.173006
0.173377
0.174038
0.174989
0.1762
0.1776
0.179075
0.180469
0.181591
0.182243
0.182241
0.18145
0.179808
0.177339
0.174181
0.170429
0.166818
0.160926
0.225894
0.225
0.224097
0.223184
0.222262
0.221331
0.220392
0.219445
0.21849
0.217528
0.216561
0.215589
0.214612
0.213633
0.212652
0.21167
0.210688
0.209709
0.208733
0.207762
0.206798
0.205842
0.204897
0.203964
0.203046
0.202145
0.201263
0.200401
0.199562
0.198747
0.197958
0.197196
0.196462
0.195756
0.19508
0.194432
0.193813
0.193223
0.19266
0.192124
0.191615
0.19113
0.190669
0.190231
0.189814
0.189417
0.189038
0.188676
0.18833
0.187996
0.187674
0.187361
0.187054
0.18675
0.186447
0.18614
0.185827
0.185502
0.185162
0.184803
0.184421
0.18401
0.183568
0.183091
0.182575
0.182016
0.181414
0.180767
0.180073
0.179332
0.178546
0.177718
0.17685
0.175949
0.175021
0.174075
0.173125
0.172184
0.171271
0.170407
0.169618
0.168929
0.168371
0.16797
0.167747
0.167715
0.167865
0.168168
0.168565
0.168971
0.169273
0.169346
0.169069
0.168343
0.167115
0.16538
0.163218
0.16066
0.158226
0.154188
0.226448
0.225603
0.22475
0.22389
0.223022
0.222146
0.221262
0.220371
0.219474
0.21857
0.21766
0.216745
0.215825
0.214902
0.213976
0.213048
0.212119
0.211189
0.21026
0.209332
0.208407
0.207486
0.206571
0.205662
0.204762
0.203871
0.202992
0.202125
0.201274
0.200438
0.19962
0.198822
0.198043
0.197286
0.196552
0.195841
0.195154
0.194491
0.193853
0.19324
0.192652
0.192089
0.191549
0.191033
0.19054
0.190069
0.189618
0.189186
0.188772
0.188373
0.187988
0.187613
0.187247
0.186886
0.186526
0.186165
0.185798
0.185422
0.185031
0.184622
0.184191
0.183733
0.183244
0.182721
0.18216
0.181557
0.18091
0.180218
0.179477
0.178688
0.177851
0.176966
0.176034
0.175061
0.174048
0.173003
0.171932
0.170845
0.169754
0.168672
0.167615
0.166603
0.165654
0.16479
0.164029
0.163383
0.162859
0.162446
0.16212
0.161838
0.161538
0.161147
0.160591
0.159805
0.158749
0.157408
0.155829
0.154005
0.152311
0.149481
0.226733
0.225919
0.2251
0.224274
0.223442
0.222604
0.221759
0.220908
0.220051
0.219188
0.218321
0.217448
0.216572
0.215692
0.214808
0.213923
0.213035
0.212145
0.211256
0.210366
0.209477
0.20859
0.207705
0.206825
0.205949
0.205079
0.204217
0.203363
0.202519
0.201686
0.200865
0.200059
0.199267
0.198492
0.197734
0.196995
0.196276
0.195576
0.194898
0.194241
0.193606
0.192993
0.192402
0.191833
0.191285
0.190758
0.190251
0.189763
0.189292
0.188837
0.188395
0.187965
0.187543
0.187127
0.186714
0.186299
0.185881
0.185453
0.185013
0.184557
0.18408
0.183577
0.183046
0.182483
0.181883
0.181243
0.180561
0.179834
0.17906
0.178237
0.177366
0.176445
0.175477
0.174462
0.173403
0.172303
0.171168
0.170003
0.168817
0.167617
0.166415
0.165224
0.164057
0.162929
0.161855
0.160848
0.159915
0.159059
0.158272
0.157537
0.156823
0.156092
0.155302
0.154415
0.153404
0.152254
0.150995
0.149599
0.148348
0.146269
0.226863
0.226069
0.225269
0.224464
0.223654
0.22284
0.222019
0.221194
0.220364
0.21953
0.218691
0.217848
0.217001
0.216151
0.215299
0.214443
0.213586
0.212727
0.211867
0.211007
0.210146
0.209287
0.208429
0.207573
0.20672
0.205871
0.205027
0.204189
0.203357
0.202534
0.20172
0.200917
0.200125
0.199346
0.198581
0.19783
0.197096
0.196378
0.195677
0.194995
0.194332
0.193688
0.193063
0.192458
0.191873
0.191306
0.190757
0.190226
0.189711
0.189211
0.188723
0.188247
0.187779
0.187317
0.186858
0.186399
0.185935
0.185465
0.184983
0.184486
0.18397
0.183431
0.182865
0.182268
0.181637
0.180968
0.180258
0.179506
0.178708
0.177863
0.17697
0.176028
0.175038
0.174001
0.172917
0.17179
0.170623
0.16942
0.168187
0.166928
0.165654
0.164371
0.16309
0.161821
0.160577
0.159368
0.158202
0.157087
0.156024
0.155007
0.154026
0.153064
0.152101
0.151114
0.150092
0.14902
0.147922
0.14676
0.145758
0.14412
0.226913
0.226128
0.225339
0.224546
0.223748
0.222947
0.222141
0.221331
0.220517
0.2197
0.218879
0.218055
0.217227
0.216397
0.215564
0.214729
0.213893
0.213055
0.212215
0.211376
0.210536
0.209696
0.208857
0.20802
0.207184
0.206352
0.205523
0.204699
0.20388
0.203067
0.202262
0.201464
0.200676
0.199898
0.199131
0.198377
0.197635
0.196908
0.196195
0.195498
0.194818
0.194154
0.193507
0.192877
0.192265
0.191669
0.19109
0.190527
0.189979
0.189444
0.188921
0.188409
0.187904
0.187406
0.18691
0.186414
0.185915
0.185409
0.184894
0.184364
0.183817
0.183248
0.182654
0.182031
0.181376
0.180685
0.179955
0.179184
0.178369
0.17751
0.176603
0.175649
0.174648
0.173599
0.172505
0.171366
0.170185
0.168966
0.167713
0.166429
0.165122
0.163797
0.162462
0.161125
0.159796
0.158483
0.157194
0.155938
0.154719
0.15354
0.1524
0.151292
0.150211
0.149146
0.148093
0.147043
0.146017
0.144972
0.144098
0.1427
0.226926
0.226145
0.22536
0.224572
0.223781
0.222986
0.222187
0.221386
0.220581
0.219773
0.218962
0.218148
0.217331
0.216513
0.215692
0.214869
0.214045
0.21322
0.212393
0.211567
0.21074
0.209913
0.209087
0.208262
0.207439
0.206618
0.205799
0.204985
0.204175
0.20337
0.202571
0.201778
0.200994
0.200218
0.199451
0.198695
0.19795
0.197217
0.196497
0.19579
0.195098
0.194421
0.193758
0.193111
0.192479
0.191863
0.191261
0.190674
0.190101
0.18954
0.18899
0.188449
0.187917
0.187389
0.186865
0.18634
0.185813
0.18528
0.184737
0.184182
0.18361
0.183018
0.182402
0.181759
0.181085
0.180378
0.179633
0.178849
0.178023
0.177153
0.176239
0.175278
0.174272
0.173219
0.172121
0.170979
0.169795
0.168573
0.167314
0.166024
0.164706
0.163366
0.162011
0.160647
0.15928
0.15792
0.156573
0.155247
0.153949
0.152684
0.151455
0.150263
0.149109
0.147989
0.146907
0.145854
0.144852
0.143858
0.143042
0.141759
0.226923
0.226143
0.22536
0.224574
0.223785
0.222993
0.222198
0.221399
0.220598
0.219795
0.218988
0.218179
0.217368
0.216556
0.215741
0.214925
0.214107
0.213289
0.212469
0.21165
0.21083
0.21001
0.209191
0.208373
0.207557
0.206742
0.20593
0.205122
0.204317
0.203516
0.202721
0.201931
0.201148
0.200373
0.199606
0.198848
0.198101
0.197363
0.196638
0.195924
0.195223
0.194535
0.193861
0.193201
0.192554
0.191922
0.191303
0.190698
0.190105
0.189523
0.188952
0.18839
0.187835
0.187284
0.186737
0.18619
0.185641
0.185086
0.184522
0.183946
0.183355
0.182744
0.182112
0.181453
0.180765
0.180045
0.17929
0.178496
0.177663
0.176787
0.175868
0.174905
0.173897
0.172843
0.171746
0.170606
0.169425
0.168205
0.16695
0.165662
0.164346
0.163006
0.161648
0.160277
0.1589
0.157524
0.156155
0.1548
0.153467
0.152161
0.150888
0.149652
0.148457
0.147304
0.146198
0.145135
0.144135
0.143156
0.142359
0.141118
0.226915
0.226135
0.225352
0.224566
0.223778
0.222986
0.222192
0.221395
0.220595
0.219793
0.218988
0.218181
0.217372
0.216562
0.215749
0.214936
0.214121
0.213305
0.212489
0.211672
0.210855
0.210038
0.209222
0.208407
0.207593
0.206782
0.205972
0.205166
0.204362
0.203563
0.202769
0.20198
0.201197
0.200421
0.199652
0.198892
0.19814
0.197399
0.196667
0.195947
0.195239
0.194542
0.193858
0.193187
0.192529
0.191883
0.191251
0.19063
0.190021
0.189423
0.188835
0.188255
0.187682
0.187114
0.186548
0.185983
0.185415
0.184843
0.184262
0.18367
0.183063
0.182438
0.181792
0.181121
0.180422
0.179693
0.178929
0.178129
0.177291
0.176412
0.17549
0.174526
0.173519
0.172468
0.171374
0.170238
0.169063
0.167849
0.1666
0.16532
0.164011
0.162678
0.161326
0.15996
0.158586
0.15721
0.155837
0.154476
0.153132
0.151811
0.15052
0.149265
0.148049
0.146877
0.145755
0.14468
0.143673
0.14269
0.141892
0.140652
0.226906
0.226125
0.225342
0.224556
0.223767
0.222975
0.22218
0.221383
0.220583
0.219781
0.218976
0.21817
0.217361
0.216551
0.215739
0.214925
0.214111
0.213295
0.212479
0.211663
0.210846
0.21003
0.209214
0.208399
0.207585
0.206773
0.205964
0.205157
0.204353
0.203553
0.202757
0.201966
0.201181
0.200402
0.19963
0.198866
0.19811
0.197364
0.196627
0.1959
0.195184
0.194479
0.193787
0.193106
0.192437
0.19178
0.191135
0.190502
0.18988
0.189268
0.188665
0.188071
0.187482
0.186899
0.186318
0.185737
0.185155
0.184567
0.183972
0.183366
0.182747
0.18211
0.181453
0.180772
0.180065
0.179328
0.178558
0.177753
0.176911
0.17603
0.175108
0.174145
0.173139
0.172091
0.171002
0.169872
0.168704
0.167498
0.166258
0.164986
0.163688
0.162365
0.161023
0.159667
0.158302
0.156933
0.155567
0.154209
0.152867
0.151545
0.15025
0.148988
0.147764
0.146582
0.145449
0.144362
0.143343
0.142349
0.141539
0.140276
0.226896
0.226115
0.225331
0.224545
0.223755
0.222962
0.222167
0.221369
0.220569
0.219766
0.218961
0.218153
0.217344
0.216533
0.21572
0.214906
0.214091
0.213274
0.212457
0.211639
0.210822
0.210004
0.209187
0.20837
0.207555
0.206741
0.205929
0.20512
0.204314
0.203511
0.202712
0.201918
0.20113
0.200347
0.199571
0.198802
0.198041
0.197288
0.196545
0.195812
0.195088
0.194376
0.193674
0.192984
0.192305
0.191638
0.190982
0.190338
0.189704
0.189079
0.188464
0.187856
0.187254
0.186657
0.186063
0.185469
0.184873
0.184273
0.183666
0.183048
0.182417
0.18177
0.181104
0.180415
0.1797
0.178957
0.178182
0.177374
0.176529
0.175647
0.174725
0.173763
0.17276
0.171716
0.170632
0.169508
0.168346
0.167149
0.165918
0.164657
0.163369
0.162057
0.160727
0.159382
0.158029
0.156671
0.155315
0.153966
0.15263
0.151313
0.15002
0.148758
0.14753
0.146343
0.145201
0.144104
0.143071
0.142061
0.141233
0.139935
0.226887
0.226106
0.225321
0.224534
0.223743
0.22295
0.222154
0.221355
0.220554
0.21975
0.218944
0.218136
0.217325
0.216513
0.215699
0.214884
0.214067
0.213249
0.21243
0.211611
0.210791
0.209971
0.209151
0.208333
0.207515
0.206698
0.205884
0.205071
0.204262
0.203455
0.202653
0.201855
0.201061
0.200274
0.199493
0.198718
0.197951
0.197193
0.196443
0.195702
0.194971
0.19425
0.19354
0.192841
0.192153
0.191476
0.19081
0.190154
0.189509
0.188873
0.188246
0.187626
0.187012
0.186403
0.185796
0.18519
0.184583
0.183971
0.183352
0.182724
0.182084
0.181427
0.180752
0.180056
0.179335
0.178586
0.177807
0.176995
0.176149
0.175265
0.174344
0.173383
0.172383