/*--------------------------------*- C++ -*----------------------------------*\
| =========                 |                                                 |
| \\      /  F ield         | OpenFOAM: The Open Source CFD Toolbox           |
|  \\    /   O peration     | Version:  2.1.1                                 |
|   \\  /    A nd           | Web:      www.OpenFOAM.org                      |
|    \\/     M anipulation  |                                                 |
\*---------------------------------------------------------------------------*/
FoamFile
{
    version     2.0;
    format      ascii;
    class       volScalarField;
    location    "0.165";
    object      nut;
}
// * * * * * * * * * * * * * * * * * * * * * * * * * * * * * * * * * * * * * //

dimensions      [0 2 -1 0 0 0 0];

internalField   nonuniform List<scalar> 
6820
(
4.96025e-05
5.47044e-05
5.94497e-05
6.37667e-05
6.76166e-05
7.09775e-05
7.38479e-05
7.62455e-05
7.82025e-05
7.97608e-05
8.09666e-05
8.18677e-05
8.25102e-05
8.29369e-05
8.31867e-05
8.32935e-05
8.32866e-05
8.3191e-05
8.30274e-05
8.2813e-05
8.25618e-05
8.22853e-05
8.19925e-05
8.16906e-05
8.13852e-05
8.10808e-05
8.07803e-05
8.04869e-05
8.01988e-05
7.99333e-05
7.9611e-05
7.96145e-05
7.80844e-05
0.000540295
0.000304971
0.000219958
0.000171556
0.000140517
0.000119654
0.000105129
9.47454e-05
8.71813e-05
8.16001e-05
7.74517e-05
7.43623e-05
7.20713e-05
7.03926e-05
6.9191e-05
6.83659e-05
6.78419e-05
6.75614e-05
6.74794e-05
6.7561e-05
6.77779e-05
6.81076e-05
6.85316e-05
6.90343e-05
6.96029e-05
7.02261e-05
7.08944e-05
7.15987e-05
7.23316e-05
7.3081e-05
7.38443e-05
7.45866e-05
7.52561e-05
0.00105857
0.000836088
0.000679239
0.000569615
0.000490055
0.000430119
0.000383704
0.000346858
0.000316958
0.000292243
0.000271496
0.000253857
0.000238698
0.000225551
0.000214061
0.000203951
0.000195005
0.000187049
0.000179942
0.000173569
0.000167836
0.000162663
0.000157983
0.000153741
0.000149887
0.000146381
0.000143187
0.000140273
0.000137613
0.000135188
0.000132961
0.000130976
0.000128934
0.00115953
0.00109653
0.00101167
0.000926417
0.000849811
0.000783621
0.000727067
0.000678738
0.000637219
0.000601286
0.000569937
0.000542368
0.000517939
0.000496142
0.000476567
0.000458888
0.000442838
0.000428199
0.00041479
0.000402462
0.000391087
0.00038056
0.000370789
0.000361695
0.000353212
0.000345281
0.000337852
0.000330883
0.00032434
0.000318193
0.000312427
0.000307024
0.000302
0.00116966
0.00115863
0.00113363
0.00109757
0.00105569
0.0010122
0.000969674
0.000929417
0.000891976
0.000857476
0.000825825
0.000796835
0.000770276
0.000745918
0.000723539
0.000702934
0.000683923
0.00066634
0.000650041
0.000634899
0.0006208
0.000607645
0.000595345
0.000583823
0.000573007
0.000562837
0.000553257
0.000544217
0.000535675
0.000527592
0.000519936
0.000512683
0.000505814
0.00117006
0.00116839
0.00116306
0.00115261
0.00113713
0.00111767
0.00109554
0.00107191
0.00104772
0.0010236
0.001
0.00097719
0.000955323
0.000934479
0.000914686
0.000895936
0.000878203
0.000861445
0.000845614
0.00083066
0.00081653
0.000803173
0.000790538
0.000778578
0.000767249
0.000756506
0.000746311
0.000736626
0.000727416
0.00071865
0.000710299
0.000702343
0.000694758
0.00116996
0.00116938
0.00116821
0.00116569
0.00116123
0.00115458
0.00114584
0.00113528
0.00112328
0.00111024
0.00109649
0.00108234
0.00106803
0.00105373
0.00103959
0.00102572
0.00101217
0.000999013
0.00098627
0.000973963
0.000962101
0.000950684
0.000939708
0.000929165
0.000919044
0.00090933
0.000900009
0.000891066
0.000882484
0.000874248
0.000866344
0.000858761
0.000851486
0.00116994
0.0011694
0.00116883
0.00116803
0.00116674
0.00116472
0.0011618
0.00115791
0.00115304
0.00114729
0.00114074
0.00113354
0.00112582
0.0011177
0.00110929
0.0011007
0.001092
0.00108328
0.00107457
0.00106595
0.00105743
0.00104905
0.00104083
0.0010328
0.00102496
0.00101731
0.00100988
0.00100265
0.000995634
0.000988828
0.00098223
0.000975842
0.000969662
0.00116994
0.00116939
0.00116886
0.00116832
0.0011677
0.00116692
0.00116588
0.00116449
0.00116269
0.00116043
0.00115772
0.00115456
0.00115097
0.00114702
0.00114272
0.00113815
0.00113334
0.00112834
0.0011232
0.00111795
0.00111263
0.00110727
0.00110189
0.00109652
0.00109118
0.00108588
0.00108064
0.00107548
0.00107039
0.00106539
0.00106048
0.00105568
0.00105099
0.00116994
0.00116938
0.00116885
0.00116833
0.00116782
0.00116729
0.00116671
0.00116605
0.00116526
0.00116432
0.00116319
0.00116185
0.0011603
0.00115853
0.00115654
0.00115435
0.00115197
0.00114942
0.00114671
0.00114387
0.00114091
0.00113786
0.00113472
0.00113153
0.00112828
0.001125
0.0011217
0.00111839
0.00111508
0.00111178
0.00110851
0.00110526
0.00110204
0.00116994
0.00116938
0.00116884
0.00116832
0.00116782
0.00116732
0.00116683
0.00116634
0.00116582
0.00116527
0.00116466
0.00116399
0.00116324
0.0011624
0.00116146
0.00116042
0.00115927
0.00115803
0.00115668
0.00115524
0.00115372
0.00115211
0.00115042
0.00114868
0.00114687
0.00114501
0.00114311
0.00114117
0.00113921
0.00113722
0.00113522
0.00113321
0.0011312
0.00116994
0.00116938
0.00116884
0.00116832
0.00116781
0.00116732
0.00116684
0.00116637
0.00116591
0.00116545
0.00116499
0.00116451
0.00116402
0.00116351
0.00116296
0.00116238
0.00116176
0.00116109
0.00116038
0.00115963
0.00115882
0.00115798
0.00115708
0.00115615
0.00115517
0.00115416
0.00115312
0.00115204
0.00115093
0.0011498
0.00114865
0.00114749
0.00114631
0.00116994
0.00116938
0.00116884
0.00116832
0.00116781
0.00116732
0.00116684
0.00116637
0.00116592
0.00116547
0.00116504
0.00116461
0.00116419
0.00116377
0.00116334
0.00116292
0.00116248
0.00116203
0.00116157
0.0011611
0.00116061
0.0011601
0.00115958
0.00115903
0.00115847
0.00115789
0.00115729
0.00115667
0.00115604
0.0011554
0.00115474
0.00115406
0.00115338
0.00116994
0.00116938
0.00116884
0.00116832
0.00116781
0.00116731
0.00116683
0.00116636
0.00116591
0.00116547
0.00116504
0.00116462
0.00116421
0.00116381
0.00116342
0.00116304
0.00116265
0.00116228
0.0011619
0.00116153
0.00116115
0.00116077
0.00116039
0.00116001
0.00115962
0.00115923
0.00115884
0.00115844
0.00115803
0.00115762
0.0011572
0.00115678
0.00115636
0.00116994
0.00116938
0.00116884
0.00116832
0.00116781
0.00116731
0.00116683
0.00116636
0.00116591
0.00116547
0.00116504
0.00116462
0.00116421
0.00116381
0.00116343
0.00116305
0.00116268
0.00116232
0.00116197
0.00116163
0.00116129
0.00116095
0.00116062
0.0011603
0.00115997
0.00115966
0.00115934
0.00115902
0.00115871
0.0011584
0.00115809
0.00115778
0.00115748
0.00116994
0.00116938
0.00116884
0.00116831
0.0011678
0.00116731
0.00116683
0.00116636
0.0011659
0.00116546
0.00116503
0.00116461
0.00116421
0.00116381
0.00116342
0.00116305
0.00116268
0.00116233
0.00116198
0.00116164
0.00116131
0.00116099
0.00116067
0.00116036
0.00116006
0.00115977
0.00115948
0.00115919
0.00115891
0.00115864
0.00115837
0.0011581
0.00115784
0.00116994
0.00116938
0.00116884
0.00116831
0.0011678
0.00116731
0.00116683
0.00116636
0.0011659
0.00116546
0.00116503
0.00116461
0.0011642
0.0011638
0.00116342
0.00116304
0.00116268
0.00116232
0.00116197
0.00116164
0.00116131
0.00116099
0.00116067
0.00116037
0.00116007
0.00115978
0.0011595
0.00115923
0.00115896
0.00115869
0.00115844
0.00115819
0.00115794
0.00116994
0.00116938
0.00116884
0.00116831
0.0011678
0.00116731
0.00116682
0.00116635
0.0011659
0.00116545
0.00116502
0.0011646
0.0011642
0.0011638
0.00116341
0.00116304
0.00116267
0.00116231
0.00116197
0.00116163
0.0011613
0.00116098
0.00116067
0.00116036
0.00116007
0.00115978
0.0011595
0.00115922
0.00115896
0.0011587
0.00115844
0.0011582
0.00115796
0.00116994
0.00116938
0.00116884
0.00116831
0.0011678
0.0011673
0.00116682
0.00116635
0.0011659
0.00116545
0.00116502
0.0011646
0.00116419
0.00116379
0.00116341
0.00116303
0.00116266
0.00116231
0.00116196
0.00116162
0.00116129
0.00116097
0.00116066
0.00116035
0.00116006
0.00115977
0.00115949
0.00115921
0.00115895
0.00115869
0.00115843
0.00115819
0.00115795
0.00116994
0.00116938
0.00116884
0.00116831
0.0011678
0.0011673
0.00116682
0.00116635
0.00116589
0.00116545
0.00116502
0.0011646
0.00116419
0.00116379
0.0011634
0.00116303
0.00116266
0.0011623
0.00116195
0.00116161
0.00116128
0.00116096
0.00116065
0.00116034
0.00116005
0.00115976
0.00115948
0.0011592
0.00115894
0.00115868
0.00115842
0.00115817
0.00115793
0.00116994
0.00116938
0.00116884
0.00116831
0.0011678
0.0011673
0.00116682
0.00116635
0.00116589
0.00116545
0.00116502
0.0011646
0.00116419
0.00116379
0.0011634
0.00116302
0.00116265
0.0011623
0.00116195
0.00116161
0.00116128
0.00116096
0.00116064
0.00116034
0.00116004
0.00115975
0.00115947
0.00115919
0.00115892
0.00115866
0.00115841
0.00115816
0.00115792
0.00116994
0.00116938
0.00116884
0.00116831
0.0011678
0.0011673
0.00116682
0.00116635
0.00116589
0.00116545
0.00116501
0.00116459
0.00116418
0.00116378
0.0011634
0.00116302
0.00116265
0.00116229
0.00116194
0.0011616
0.00116127
0.00116095
0.00116064
0.00116033
0.00116003
0.00115974
0.00115946
0.00115918
0.00115891
0.00115865
0.0011584
0.00115815
0.00115791
0.00116994
0.00116938
0.00116884
0.00116831
0.0011678
0.0011673
0.00116682
0.00116635
0.00116589
0.00116545
0.00116501
0.00116459
0.00116418
0.00116378
0.00116339
0.00116301
0.00116265
0.00116229
0.00116194
0.0011616
0.00116127
0.00116094
0.00116063
0.00116032
0.00116002
0.00115973
0.00115945
0.00115917
0.0011589
0.00115864
0.00115839
0.00115814
0.00115789
0.00116994
0.00116938
0.00116884
0.00116831
0.0011678
0.0011673
0.00116682
0.00116635
0.00116589
0.00116544
0.00116501
0.00116459
0.00116418
0.00116378
0.00116339
0.00116301
0.00116264
0.00116228
0.00116193
0.00116159
0.00116126
0.00116094
0.00116062
0.00116032
0.00116002
0.00115973
0.00115944
0.00115916
0.00115889
0.00115863
0.00115837
0.00115812
0.00115788
0.00116994
0.00116938
0.00116884
0.00116831
0.0011678
0.0011673
0.00116682
0.00116635
0.00116589
0.00116544
0.00116501
0.00116459
0.00116418
0.00116378
0.00116339
0.00116301
0.00116264
0.00116228
0.00116193
0.00116159
0.00116126
0.00116093
0.00116062
0.00116031
0.00116001
0.00115972
0.00115943
0.00115916
0.00115889
0.00115862
0.00115837
0.00115811
0.00115787
0.00116994
0.00116938
0.00116884
0.00116831
0.0011678
0.0011673
0.00116682
0.00116635
0.00116589
0.00116544
0.00116501
0.00116459
0.00116418
0.00116378
0.00116339
0.00116301
0.00116264
0.00116228
0.00116193
0.00116159
0.00116125
0.00116093
0.00116061
0.0011603
0.00116
0.00115971
0.00115943
0.00115915
0.00115888
0.00115861
0.00115836
0.0011581
0.00115786
0.00116994
0.00116938
0.00116884
0.00116831
0.0011678
0.0011673
0.00116682
0.00116635
0.00116589
0.00116544
0.00116501
0.00116459
0.00116417
0.00116377
0.00116338
0.001163
0.00116264
0.00116228
0.00116192
0.00116158
0.00116125
0.00116093
0.00116061
0.0011603
0.00116
0.00115971
0.00115942
0.00115914
0.00115887
0.00115861
0.00115835
0.0011581
0.00115785
0.00116994
0.00116938
0.00116884
0.00116831
0.0011678
0.0011673
0.00116682
0.00116635
0.00116589
0.00116544
0.00116501
0.00116458
0.00116417
0.00116377
0.00116338
0.001163
0.00116263
0.00116227
0.00116192
0.00116158
0.00116125
0.00116092
0.00116061
0.0011603
0.00116
0.0011597
0.00115942
0.00115914
0.00115887
0.0011586
0.00115834
0.00115809
0.00115784
0.00116994
0.00116938
0.00116884
0.00116831
0.0011678
0.0011673
0.00116682
0.00116634
0.00116589
0.00116544
0.00116501
0.00116458
0.00116417
0.00116377
0.00116338
0.001163
0.00116263
0.00116227
0.00116192
0.00116158
0.00116125
0.00116092
0.0011606
0.00116029
0.00115999
0.0011597
0.00115941
0.00115913
0.00115886
0.0011586
0.00115834
0.00115808
0.00115784
0.00116994
0.00116938
0.00116884
0.00116831
0.0011678
0.0011673
0.00116682
0.00116635
0.00116589
0.00116544
0.00116501
0.00116459
0.00116417
0.00116377
0.00116338
0.001163
0.00116263
0.00116227
0.00116192
0.00116158
0.00116125
0.00116092
0.0011606
0.00116029
0.00115999
0.0011597
0.00115941
0.00115913
0.00115886
0.00115859
0.00115833
0.00115808
0.00115783
0.00116994
0.00116938
0.00116884
0.00116831
0.0011678
0.0011673
0.00116682
0.00116635
0.00116589
0.00116544
0.00116501
0.00116459
0.00116418
0.00116378
0.00116339
0.00116301
0.00116264
0.00116228
0.00116192
0.00116158
0.00116125
0.00116092
0.0011606
0.00116029
0.00115999
0.0011597
0.00115941
0.00115913
0.00115885
0.00115859
0.00115832
0.00115807
0.00115782
0.00116994
0.00116938
0.00116884
0.00116831
0.0011678
0.00116731
0.00116682
0.00116635
0.0011659
0.00116545
0.00116502
0.0011646
0.00116418
0.00116378
0.00116339
0.00116301
0.00116264
0.00116228
0.00116193
0.00116158
0.00116125
0.00116092
0.0011606
0.00116029
0.00115998
0.00115968
0.00115939
0.0011591
0.00115882
0.00115854
0.00115827
0.00115801
0.00115775
0.00116994
0.00116938
0.00116884
0.00116831
0.00116781
0.00116731
0.00116683
0.00116636
0.0011659
0.00116546
0.00116503
0.0011646
0.00116419
0.00116379
0.0011634
0.00116301
0.00116264
0.00116227
0.0011619
0.00116155
0.0011612
0.00116086
0.00116052
0.00116019
0.00115986
0.00115953
0.00115921
0.0011589
0.00115858
0.00115827
0.00115797
0.00115767
0.00115737
0.00116994
0.00116938
0.00116884
0.00116833
0.00116782
0.00116733
0.00116685
0.00116638
0.00116593
0.00116548
0.00116503
0.00116459
0.00116416
0.00116373
0.00116331
0.00116288
0.00116246
0.00116204
0.00116161
0.00116119
0.00116076
0.00116033
0.0011599
0.00115946
0.00115902
0.00115858
0.00115814
0.00115769
0.00115724
0.00115678
0.00115632
0.00115586
0.0011554
0.00116994
0.00116939
0.00116886
0.00116835
0.00116784
0.00116733
0.00116683
0.00116632
0.00116581
0.00116528
0.00116473
0.00116417
0.00116358
0.00116297
0.00116233
0.00116166
0.00116096
0.00116024
0.00115949
0.0011587
0.00115789
0.00115706
0.0011562
0.00115532
0.00115441
0.00115349
0.00115254
0.00115158
0.0011506
0.00114962
0.00114861
0.0011476
0.00114658
0.00116995
0.0011694
0.00116886
0.00116828
0.00116765
0.00116694
0.00116612
0.00116519
0.00116413
0.00116294
0.00116162
0.00116017
0.00115858
0.00115688
0.00115506
0.00115313
0.00115111
0.00114899
0.0011468
0.00114453
0.0011422
0.00113982
0.00113739
0.00113493
0.00113243
0.00112991
0.00112738
0.00112484
0.00112229
0.00111974
0.00111719
0.00111465
0.00111213
0.00116996
0.00116916
0.00116786
0.00116595
0.00116343
0.0011603
0.00115656
0.00115227
0.00114747
0.00114222
0.00113658
0.00113063
0.00112442
0.00111801
0.00111144
0.00110477
0.00109804
0.00109128
0.00108451
0.00107777
0.00107108
0.00106445
0.00105791
0.00105145
0.0010451
0.00103886
0.00103274
0.00102674
0.00102087
0.00101512
0.00100951
0.00100402
0.000998666
0.00116831
0.00115866
0.001145
0.00112844
0.00110969
0.00108948
0.00106843
0.00104709
0.00102581
0.00100489
0.000984503
0.000964768
0.000945759
0.000927512
0.000910039
0.000893336
0.000877387
0.000862169
0.000847653
0.000833808
0.000820603
0.000808006
0.000795985
0.000784509
0.000773548
0.000763076
0.000753064
0.000743487
0.000734322
0.000725546
0.000717138
0.000709078
0.000701345
0.00107567
0.000936196
0.00083561
0.000756897
0.000692109
0.000638367
0.000593467
0.00055558
0.000523268
0.000495427
0.00047121
0.000449964
0.000431182
0.000414467
0.000399502
0.000386033
0.000373854
0.000362794
0.000352713
0.000343493
0.000335034
0.000327252
0.000320075
0.000313439
0.00030729
0.000301582
0.000296273
0.000291326
0.000286709
0.000282394
0.000278355
0.00027457
0.000271016
0.000142979
0.000146644
0.000150174
0.000153551
0.000156773
0.000159846
0.000162776
0.000165567
0.000168225
0.000170754
0.000173161
0.000175449
0.000177624
0.000179691
0.000181653
0.000183516
0.000185284
0.000186961
0.000188552
0.000190061
0.000191491
0.000192847
0.000194132
0.000195349
0.000196503
0.000197595
0.00019863
0.000199611
0.000200539
0.000201418
0.00020225
0.000203038
0.000203784
9.09875e-05
0.000110369
0.000133811
0.000161892
0.000194216
0.000229263
0.000265028
0.000299773
0.000332447
0.000362822
0.00039128
0.000418501
0.000445143
0.000471656
0.000498228
0.000524858
0.000551467
0.000578005
0.000604502
0.000631074
0.000657887
0.000685119
0.000712916
0.000741369
0.00077051
0.000800323
0.000830748
0.0008617
0.000893071
0.000924736
0.000956546
0.000988334
0.00101991
0.00105105
0.00108152
0.00111106
0.0011394
0.00116625
0.00119132
0.00121432
0.00123496
0.00125295
0.00126804
0.00127998
0.00128856
0.00129362
0.00129502
0.00129271
0.00128669
0.00127705
0.00126397
0.0012477
0.00122863
0.00120721
0.00118404
0.00115977
0.00113515
0.00111097
0.00108805
0.00106719
0.00104911
0.0010344
0.00102353
0.00101676
0.00101416
0.00101562
0.00102089
0.00102965
0.00104151
0.00105614
0.00107326
0.00109269
0.00111437
0.00113836
0.00116483
0.001194
0.00122614
0.00126149
0.0013002
0.00134228
0.00138751
0.00143544
0.00148534
0.00153623
0.00158687
0.00163587
0.00168169
0.00172273
0.00175745
0.00178438
0.00180222
0.00180992
0.00180677
0.0017924
0.00176695
0.00173104
0.00168622
0.00163329
0.00158179
0.00149875
7.64161e-05
7.85331e-05
8.18736e-05
8.71094e-05
9.50163e-05
0.00010634
0.000121653
0.000141243
0.000164988
0.000192337
0.000222384
0.000254016
0.000286117
0.000317753
0.000348304
0.00037751
0.000405425
0.000432312
0.000458523
0.000484398
0.000510191
0.000536058
0.000562062
0.000588208
0.000614472
0.000640829
0.000667257
0.000693736
0.000720241
0.000746726
0.000773116
0.000799306
0.000825155
0.000850494
0.000875126
0.000898836
0.000921391
0.000942551
0.00096207
0.000979702
0.000995209
0.00100836
0.00101896
0.00102681
0.00103178
0.00103378
0.00103277
0.00102877
0.0010219
0.00101237
0.00100046
0.000986588
0.000971247
0.000955042
0.000938657
0.000922836
0.000908352
0.000895953
0.000886321
0.000880008
0.000877389
0.000878629
0.000883668
0.000892239
0.000903908
0.000918138
0.000934356
0.000952018
0.000970657
0.000989926
0.00100961
0.00102965
0.00105011
0.00107121
0.00109328
0.00111675
0.00114213
0.00116991
0.00120057
0.00123445
0.00127169
0.00131217
0.00135545
0.00140076
0.00144701
0.00149285
0.00153677
0.00157713
0.00161229
0.00164072
0.00166103
0.00167214
0.00167328
0.00166411
0.00164482
0.00161613
0.00157968
0.00153654
0.00149532
0.00143026
0.000126889
0.000124856
0.000122782
0.000120479
0.000117953
0.000115428
0.00011355
0.000112697
0.000113326
0.000115988
0.000121237
0.00012954
0.000141202
0.000156315
0.000174739
0.000196114
0.000219898
0.000245439
0.000272054
0.000299119
0.000326133
0.000352751
0.000378795
0.000404218
0.000429066
0.000453433
0.000477411
0.000501073
0.00052445
0.00054753
0.000570263
0.000592564
0.000614325
0.000635419
0.000655704
0.000675027
0.000693226
0.000710133
0.000725581
0.000739404
0.00075145
0.000761583
0.000769694
0.000775711
0.00077961
0.000781424
0.000781256
0.000779287
0.000775783
0.000771104
0.000765703
0.000760114
0.000754948
0.000750856
0.000748498
0.000748496
0.000751375
0.000757512
0.000767089
0.000780061
0.000796168
0.000814952
0.000835824
0.000858122
0.000881188
0.000904415
0.000927295
0.000949437
0.000970576
0.00099057
0.00100939
0.00102712
0.00104394
0.00106012
0.00107603
0.00109214
0.00110899
0.00112721
0.00114745
0.00117032
0.00119631
0.00122573
0.00125855
0.00129438
0.00133245
0.00137163
0.0014105
0.00144745
0.00148081
0.00150896
0.00153045
0.00154408
0.00154905
0.00154499
0.00153212
0.00151117
0.00148383
0.0014513
0.00142096
0.00137432
0.000296558
0.000290521
0.000284474
0.000278315
0.000271884
0.00026499
0.0002575
0.000249453
0.000241046
0.000232315
0.000223372
0.000214474
0.00020602
0.000198516
0.000192503
0.000188491
0.000186897
0.000188007
0.000191962
0.000198761
0.000208268
0.00022024
0.000234354
0.000250234
0.000267487
0.000285732
0.000304622
0.000323859
0.0003432
0.000362455
0.000381476
0.000400144
0.000418362
0.000436041
0.000453093
0.000469432
0.00048497
0.00049962
0.000513305
0.00052596
0.000537541
0.000548035
0.000557466
0.000565904
0.000573474
0.000580362
0.00058682
0.000593165
0.000599776
0.000607083
0.000615547
0.000625629
0.000637753
0.000652264
0.000669385
0.000689181
0.000711538
0.00073617
0.000762639
0.000790405
0.000818871
0.000847442
0.000875569
0.00090278
0.000928702
0.000953064
0.000975694
0.000996509
0.0010155
0.00103271
0.00104824
0.00106223
0.00107486
0.00108632
0.00109689
0.00110687
0.00111666
0.00112674
0.00113766
0.00115008
0.00116464
0.00118195
0.00120242
0.00122619
0.00125301
0.0012822
0.0013127
0.00134311
0.00137187
0.00139737
0.00141809
0.0014328
0.00144059
0.00144104
0.00143431
0.00142109
0.00140295
0.00138109
0.00136135
0.0013318
0.000498277
0.000490044
0.000482059
0.000474267
0.000466596
0.000458945
0.000451197
0.000443184
0.000434925
0.00042635
0.000417358
0.000407848
0.000397746
0.000387024
0.000375721
0.000363963
0.000351964
0.000340023
0.000328503
0.000317794
0.000308277
0.000300288
0.00029409
0.000289863
0.000287697
0.000287601
0.000289512
0.000293308
0.000298829
0.000305882
0.000314266
0.000323775
0.000334216
0.000345408
0.000357194
0.000369441
0.000382045
0.000394927
0.000408042
0.000421377
0.000434951
0.00044882
0.000463075
0.000477845
0.000493291
0.000509599
0.000526976
0.000545628
0.000565746
0.000587485
0.000610939
0.000636122
0.000662956
0.000691263
0.000720772
0.000751132
0.000781939
0.00081276
0.000843171
0.000872775
0.000901231
0.000928263
0.000953667
0.000977312
0.00099913
0.00101911
0.00103729
0.00105373
0.00106853
0.0010818
0.00109365
0.00110421
0.00111359
0.00112192
0.00112933
0.00113596
0.001142
0.00114768
0.00115328
0.00115921
0.00116596
0.00117409
0.00118421
0.00119679
0.00121211
0.0012301
0.00125029
0.00127181
0.00129346
0.00131387
0.00133165
0.00134554
0.00135461
0.00135836
0.00135681
0.00135049
0.00134069
0.00132838
0.00131773
0.00130195
0.000686378
0.000677192
0.000668296
0.000659677
0.000651307
0.000643146
0.00063514
0.000627231
0.000619384
0.000611558
0.000603706
0.000595773
0.000587702
0.000579432
0.000570905
0.000562071
0.000552898
0.000543377
0.000533534
0.000523435
0.000513185
0.000502931
0.00049285
0.000483145
0.000474032
0.000465724
0.000458425
0.000452314
0.000447544
0.000444231
0.000442459
0.000442276
0.000443704
0.000446742
0.00045137
0.000457563
0.000465287
0.000474511
0.000485212
0.000497369
0.000510973
0.000526022
0.000542518
0.000560463
0.000579852
0.00060067
0.000622879
0.000646413
0.00067117
0.000697011
0.000723754
0.000751177
0.000779029
0.000807033
0.000834904
0.000862357
0.000889126
0.000914972
0.00093969
0.00096312
0.000985144
0.00100569
0.00102472
0.00104225
0.0010583
0.00107293
0.00108621
0.00109823
0.00110909
0.00111887
0.00112768
0.00113561
0.00114274
0.00114916
0.00115495
0.00116015
0.00116486
0.00116912
0.00117303
0.00117673
0.0011804
0.00118434
0.00118893
0.0011946
0.00120181
0.00121087
0.00122186
0.00123454
0.00124831
0.00126231
0.0012755
0.00128683
0.00129545
0.00130079
0.00130274
0.00130156
0.00129811
0.00129296
0.00128875
0.00128195
0.000843385
0.000834425
0.00082567
0.000817125
0.000808784
0.000800641
0.000792679
0.000784887
0.000777255
0.000769769
0.000762416
0.000755183
0.000748057
0.000741021
0.00073406
0.000727153
0.00072028
0.000713422
0.000706565
0.000699703
0.000692839
0.000685995
0.000679207
0.000672532
0.000666046
0.000659842
0.00065403
0.000648732
0.000644079
0.000640202
0.000637235
0.000635302
0.00063452
0.000634992
0.000636805
0.000640031
0.000644725
0.000650925
0.000658652
0.000667911
0.000678688
0.000690956
0.000704666
0.000719753
0.000736131
0.000753695
0.000772318
0.000791853
0.000812137
0.000832987
0.000854212
0.00087561
0.00089698
0.000918126
0.000938861
0.000959018
0.000978449
0.000997031
0.00101467
0.00103129
0.00104686
0.00106135
0.00107477
0.00108714
0.00109849
0.00110888
0.00111835
0.00112697
0.00113482
0.00114195
0.00114844
0.00115436
0.00115978
0.00116477
0.0011694
0.00117371
0.00117777
0.00118159
0.00118522
0.00118867
0.00119197
0.00119517
0.00119839
0.0012018
0.00120565
0.00121022
0.00121576
0.00122239
0.00123004
0.00123839
0.00124689
0.00125491
0.00126181
0.00126708
0.00127052
0.0012721
0.00127227
0.00127118
0.00127028
0.00126763
0.000962711
0.000954934
0.000947242
0.000939648
0.000932162
0.000924791
0.000917537
0.000910405
0.000903398
0.000896519
0.000889773
0.000883166
0.000876704
0.000870396
0.000864248
0.000858267
0.000852459
0.000846827
0.000841375
0.000836107
0.000831028
0.000826146
0.000821474
0.000817031
0.000812843
0.000808946
0.000805383
0.000802209
0.000799485
0.000797281
0.000795671
0.000794735
0.000794549
0.000795192
0.000796735
0.000799241
0.000802765
0.000807348
0.000813019
0.000819789
0.000827655
0.000836594
0.000846567
0.000857518
0.000869372
0.000882039
0.000895415
0.000909382
0.000923814
0.000938576
0.000953531
0.000968542
0.000983476
0.000998206
0.00101262
0.00102661
0.00104009
0.00105298
0.00106524
0.00107683
0.00108771
0.00109787
0.00110733
0.00111608
0.00112416
0.00113158
0.00113838
0.0011446
0.00115028
0.00115547
0.00116022
0.00116457
0.00116859
0.00117234
0.00117586
0.00117923
0.0011825
0.00118572
0.00118894
0.00119219
0.00119548
0.0011988
0.00120215
0.00120552
0.00120895
0.00121252
0.00121634
0.00122052
0.00122514
0.00123019
0.00123549
0.00124079
0.00124572
0.00124996
0.00125327
0.0012555
0.00125676
0.00125694
0.00125682
0.00125494
0.00104564
0.00103959
0.00103352
0.00102746
0.0010214
0.00101536
0.00100935
0.00100339
0.000997478
0.000991628
0.000985852
0.000980163
0.000974574
0.000969101
0.000963759
0.000958564
0.000953532
0.000948679
0.000944021
0.000939571
0.000935345
0.000931358
0.000927623
0.000924158
0.000920981
0.000918112
0.000915575
0.000913397
0.000911609
0.000910245
0.000909342
0.00090894
0.00090908
0.000909801
0.000911144
0.000913143
0.00091583
0.000919229
0.000923355
0.000928215
0.000933805
0.00094011
0.000947103
0.000954744
0.000962985
0.000971764
0.000981011
0.000990649
0.00100059
0.00101076
0.00102106
0.0010314
0.0010417
0.00105188
0.00106186
0.00107158
0.00108097
0.00109001
0.00109863
0.00110682
0.00111456
0.00112183
0.00112862
0.00113495
0.00114081
0.00114621
0.00115118
0.00115573
0.00115989
0.00116367
0.00116712
0.00117028
0.00117316
0.00117584
0.00117834
0.00118074
0.00118308
0.00118544
0.00118787
0.00119043
0.00119317
0.00119612
0.00119927
0.00120262
0.00120612
0.00120974
0.00121344
0.00121722
0.00122107
0.00122497
0.00122888
0.0012327
0.00123627
0.00123939
0.00124189
0.0012436
0.00124451
0.00124443
0.00124386
0.00124141
0.00109833
0.00109407
0.00108974
0.00108534
0.00108089
0.0010764
0.00107187
0.00106732
0.00106276
0.0010582
0.00105364
0.00104911
0.00104462
0.00104018
0.00103581
0.00103153
0.00102735
0.00102329
0.00101938
0.00101562
0.00101204
0.00100866
0.00100548
0.00100254
0.000999849
0.000997422
0.000995281
0.000993444
0.000991933
0.000990768
0.00098997
0.000989562
0.000989565
0.000990001
0.000990889
0.000992247
0.000994091
0.000996431
0.000999273
0.00100262
0.00100646
0.0010108
0.00101559
0.00102084
0.00102649
0.00103251
0.00103885
0.00104547
0.00105232
0.00105933
0.00106645
0.00107362
0.00108079
0.00108791
0.00109492
0.00110179
0.00110847
0.00111492
0.00112113
0.00112705
0.00113268
0.00113801
0.00114301
0.00114769
0.00115204
0.00115606
0.00115976
0.00116315
0.00116623
0.00116902
0.00117153
0.00117379
0.00117582
0.00117765
0.00117931
0.00118086
0.00118234
0.0011838
0.00118531
0.00118695
0.00118876
0.00119082
0.00119316
0.00119582
0.00119877
0.001202
0.00120543
0.001209
0.0012126
0.00121617
0.0012196
0.0012228
0.00122566
0.00122803
0.0012298
0.00123083
0.00123111
0.00123049
0.00122942
0.00122664
0.00112885
0.00112611
0.00112328
0.00112037
0.00111737
0.00111431
0.00111118
0.00110799
0.00110476
0.00110148
0.00109817
0.00109483
0.00109149
0.00108815
0.00108483
0.00108154
0.00107829
0.0010751
0.00107199
0.00106898
0.00106607
0.00106329
0.00106066
0.00105819
0.00105589
0.0010538
0.00105192
0.00105026
0.00104886
0.00104772
0.00104685
0.00104629
0.00104603
0.00104609
0.00104649
0.00104723
0.00104833
0.00104978
0.0010516
0.00105378
0.00105631
0.0010592
0.00106241
0.00106594
0.00106977
0.00107387
0.00107822
0.00108277
0.0010875
0.00109237
0.00109734
0.00110237
0.00110744
0.0011125
0.00111752
0.00112247
0.00112731
0.00113203
0.0011366
0.00114099
0.00114519
0.00114918
0.00115296
0.0011565
0.00115981
0.00116288
0.0011657
0.00116827
0.00117059
0.00117268
0.00117452
0.00117615
0.00117755
0.00117877
0.00117981
0.00118071
0.0011815
0.00118223
0.00118295
0.00118372
0.00118459
0.00118564
0.00118694
0.00118852
0.00119044
0.00119269
0.00119524
0.00119805
0.00120102
0.00120403
0.00120696
0.00120968
0.00121205
0.00121394
0.00121526
0.00121589
0.00121586
0.00121508
0.00121396
0.00121163
0.00114491
0.00114326
0.00114154
0.00113974
0.00113787
0.00113593
0.00113391
0.00113184
0.0011297
0.00112751
0.00112527
0.00112299
0.00112068
0.00111834
0.00111598
0.00111362
0.00111126
0.00110892
0.00110661
0.00110434
0.00110212
0.00109997
0.00109791
0.00109594
0.00109409
0.00109236
0.00109077
0.00108934
0.00108808
0.00108701
0.00108613
0.00108547
0.00108503
0.00108482
0.00108485
0.00108514
0.00108569
0.00108649
0.00108757
0.0010889
0.0010905
0.00109236
0.00109447
0.00109681
0.00109938
0.00110216
0.00110513
0.00110828
0.00111157
0.00111498
0.0011185
0.00112209
0.00112573
0.0011294
0.00113307
0.00113671
0.00114031
0.00114384
0.00114728
0.00115062
0.00115383
0.00115691
0.00115983
0.00116259
0.00116517
0.00116757
0.00116977
0.00117177
0.00117357
0.00117516
0.00117655
0.00117773
0.00117871
0.0011795
0.00118011
0.00118056
0.00118088
0.00118108
0.00118122
0.00118133
0.00118146
0.00118167
0.00118202
0.00118258
0.00118339
0.00118449
0.00118589
0.00118758
0.0011895
0.00119158
0.00119369
0.00119571
0.00119751
0.00119896
0.00119997
0.00120044
0.00120042
0.00119987
0.00119908
0.00119774
0.00115257
0.0011516
0.00115058
0.00114951
0.00114838
0.0011472
0.00114596
0.00114467
0.00114333
0.00114194
0.00114051
0.00113903
0.00113751
0.00113596
0.00113439
0.00113279
0.00113118
0.00112955
0.00112793
0.00112632
0.00112473
0.00112317
0.00112165
0.00112018
0.00111876
0.00111743
0.00111618
0.00111502
0.00111398
0.00111306
0.00111226
0.00111162
0.00111112
0.00111079
0.00111063
0.00111065
0.00111085
0.00111125
0.00111184
0.00111263
0.00111361
0.00111478
0.00111615
0.0011177
0.00111943
0.00112132
0.00112338
0.00112557
0.0011279
0.00113033
0.00113287
0.00113549
0.00113817
0.00114089
0.00114364
0.00114639
0.00114914
0.00115186
0.00115453
0.00115714
0.00115967
0.00116211
0.00116444
0.00116665
0.00116873
0.00117066
0.00117243
0.00117404
0.00117547
0.00117672
0.00117779
0.00117867
0.00117937
0.00117988
0.00118021
0.00118037
0.00118038
0.00118024
0.00118
0.00117967
0.0011793
0.00117893