/*--------------------------------*- C++ -*----------------------------------*\
| =========                 |                                                 |
| \\      /  F ield         | OpenFOAM: The Open Source CFD Toolbox           |
|  \\    /   O peration     | Version:  2.1.1                                 |
|   \\  /    A nd           | Web:      www.OpenFOAM.org                      |
|    \\/     M anipulation  |                                                 |
\*---------------------------------------------------------------------------*/
FoamFile
{
    version     2.0;
    format      ascii;
    class       volScalarField;
    location    "0.165";
    object      p;
}
// * * * * * * * * * * * * * * * * * * * * * * * * * * * * * * * * * * * * * //

dimensions      [0 2 -2 0 0 0 0];

internalField   nonuniform List<scalar> 
6820
(
-10.3483
-12.1946
-12.7696
-12.8975
-13.0046
-13.0839
-13.1384
-13.1849
-13.2275
-13.2666
-13.303
-13.3375
-13.3702
-13.4014
-13.4312
-13.4597
-13.4871
-13.5134
-13.5388
-13.5633
-13.5871
-13.6102
-13.6326
-13.6544
-13.6755
-13.6958
-13.7151
-13.7329
-13.7483
-13.7601
-13.7641
-13.7542
-13.7175
-14.3008
-13.7662
-13.3437
-13.1538
-13.1292
-13.1405
-13.1609
-13.1889
-13.2211
-13.2546
-13.2882
-13.3214
-13.3539
-13.3854
-13.4158
-13.445
-13.4732
-13.5004
-13.5266
-13.5519
-13.5764
-13.6002
-13.6233
-13.6457
-13.6675
-13.6887
-13.7091
-13.7287
-13.7471
-13.7659
-13.7834
-13.8219
-13.8731
-12.6583
-12.3545
-12.6412
-12.8863
-12.9913
-13.0668
-13.1259
-13.1753
-13.2194
-13.2596
-13.2968
-13.3317
-13.3646
-13.3958
-13.4255
-13.4539
-13.4812
-13.5074
-13.5327
-13.5571
-13.5809
-13.604
-13.6265
-13.6485
-13.6699
-13.691
-13.7115
-13.7316
-13.7514
-13.772
-13.7938
-13.8233
-13.8574
-13.1652
-13.1996
-13.1969
-13.1377
-13.13
-13.1506
-13.177
-13.206
-13.2369
-13.2683
-13.2996
-13.3304
-13.3605
-13.3898
-13.4183
-13.446
-13.4728
-13.4988
-13.524
-13.5486
-13.5725
-13.5959
-13.6188
-13.6412
-13.6632
-13.6849
-13.7063
-13.7278
-13.7496
-13.773
-13.7986
-13.8335
-13.8749
-13.0098
-12.9098
-12.954
-13.0201
-13.0731
-13.1197
-13.1605
-13.198
-13.2339
-13.2684
-13.3014
-13.3332
-13.3639
-13.3934
-13.4219
-13.4493
-13.4759
-13.5016
-13.5265
-13.5507
-13.5743
-13.5974
-13.62
-13.6423
-13.6642
-13.686
-13.7077
-13.7298
-13.7525
-13.777
-13.804
-13.8371
-13.875
-13.0649
-13.0483
-13.0734
-13.0966
-13.119
-13.1484
-13.1799
-13.2117
-13.2435
-13.275
-13.3058
-13.3358
-13.3651
-13.3935
-13.421
-13.4478
-13.4737
-13.499
-13.5236
-13.5475
-13.571
-13.594
-13.6166
-13.6389
-13.661
-13.6831
-13.7053
-13.7279
-13.7514
-13.7767
-13.8042
-13.8361
-13.8717
-13.0631
-13.042
-13.0578
-13.0867
-13.1168
-13.1498
-13.1828
-13.2148
-13.2465
-13.2776
-13.3079
-13.3375
-13.3662
-13.3942
-13.4213
-13.4477
-13.4734
-13.4983
-13.5226
-13.5464
-13.5697
-13.5926
-13.6151
-13.6374
-13.6595
-13.6817
-13.7041
-13.727
-13.7508
-13.7761
-13.8034
-13.8335
-13.8661
-13.0772
-13.0694
-13.0848
-13.1094
-13.1347
-13.1629
-13.1925
-13.2223
-13.2522
-13.2818
-13.311
-13.3395
-13.3674
-13.3946
-13.4211
-13.447
-13.4721
-13.4967
-13.5207
-13.5442
-13.5673
-13.5899
-13.6123
-13.6346
-13.6567
-13.6789
-13.7014
-13.7244
-13.7482
-13.7732
-13.7998
-13.8282
-13.8582
-13.0901
-13.0862
-13.0984
-13.1199
-13.144
-13.1708
-13.1992
-13.2279
-13.2567
-13.2853
-13.3135
-13.3412
-13.3684
-13.395
-13.4209
-13.4463
-13.471
-13.4952
-13.5189
-13.5421
-13.5649
-13.5874
-13.6096
-13.6317
-13.6538
-13.6759
-13.6983
-13.7212
-13.7447
-13.7692
-13.7948
-13.8217
-13.8494
-13.1036
-13.103
-13.1143
-13.1338
-13.156
-13.1808
-13.2073
-13.2343
-13.2617
-13.2891
-13.3163
-13.3431
-13.3695
-13.3953
-13.4206
-13.4454
-13.4697
-13.4935
-13.5168
-13.5397
-13.5622
-13.5844
-13.6065
-13.6283
-13.6502
-13.6722
-13.6944
-13.7169
-13.7401
-13.7639
-13.7885
-13.8138
-13.8395
-13.1171
-13.1181
-13.1285
-13.146
-13.1666
-13.1897
-13.2146
-13.2403
-13.2665
-13.2928
-13.319
-13.3449
-13.3705
-13.3956
-13.4203
-13.4446
-13.4683
-13.4917
-13.5146
-13.5371
-13.5593
-13.5813
-13.603
-13.6247
-13.6463
-13.668
-13.6898
-13.712
-13.7345
-13.7576
-13.7811
-13.805
-13.8291
-13.1303
-13.1323
-13.142
-13.158
-13.1771
-13.1986
-13.222
-13.2464
-13.2713
-13.2965
-13.3217
-13.3467
-13.3715
-13.3959
-13.42
-13.4437
-13.4669
-13.4898
-13.5122
-13.5344
-13.5562
-13.5779
-13.5993
-13.6206
-13.6419
-13.6632
-13.6846
-13.7063
-13.7282
-13.7504
-13.7729
-13.7955
-13.8181
-13.143
-13.1455
-13.1547
-13.1693
-13.187
-13.2072
-13.2292
-13.2523
-13.276
-13.3001
-13.3243
-13.3485
-13.3725
-13.3962
-13.4196
-13.4427
-13.4654
-13.4878
-13.5098
-13.5315
-13.553
-13.5742
-13.5953
-13.6162
-13.6371
-13.658
-13.6789
-13.7
-13.7212
-13.7425
-13.7639
-13.7854
-13.8067
-13.1553
-13.1579
-13.1666
-13.1801
-13.1965
-13.2154
-13.2361
-13.258
-13.2806
-13.3036
-13.3269
-13.3502
-13.3734
-13.3964
-13.4192
-13.4416
-13.4638
-13.4856
-13.5072
-13.5285
-13.5495
-13.5703
-13.5909
-13.6114
-13.6319
-13.6522
-13.6726
-13.693
-13.7135
-13.734
-13.7544
-13.7747
-13.7948
-13.1669
-13.1695
-13.1777
-13.1902
-13.2056
-13.2232
-13.2427
-13.2634
-13.285
-13.307
-13.3294
-13.3518
-13.3742
-13.3965
-13.4186
-13.4405
-13.4621
-13.4834
-13.5044
-13.5252
-13.5458
-13.5661
-13.5863
-13.6063
-13.6262
-13.6461
-13.6659
-13.6856
-13.7053
-13.7249
-13.7444
-13.7637
-13.7827
-13.1778
-13.1804
-13.1881
-13.1997
-13.2141
-13.2307
-13.249
-13.2687
-13.2892
-13.3103
-13.3317
-13.3533
-13.3749
-13.3965
-13.4179
-13.4392
-13.4602
-13.481
-13.5015
-13.5218
-13.5418
-13.5617
-13.5814
-13.6009
-13.6203
-13.6395
-13.6586
-13.6777
-13.6966
-13.7153
-13.7339
-13.7522
-13.7702
-13.188
-13.1905
-13.1978
-13.2086
-13.222
-13.2376
-13.255
-13.2736
-13.2931
-13.3133
-13.3338
-13.3546
-13.3755
-13.3964
-13.4171
-13.4377
-13.4582
-13.4784
-13.4984
-13.5181
-13.5377
-13.557
-13.5761
-13.5951
-13.6139
-13.6325
-13.651
-13.6693
-13.6874
-13.7053
-13.723
-13.7404
-13.7574
-13.1975
-13.1998
-13.2067
-13.2169
-13.2294
-13.2441
-13.2605
-13.2782
-13.2968
-13.316
-13.3358
-13.3558
-13.3759
-13.396
-13.4162
-13.4361
-13.456
-13.4756
-13.495
-13.5142
-13.5332
-13.552
-13.5706
-13.589
-13.6072
-13.6251
-13.6429
-13.6605
-13.6778
-13.6949
-13.7117
-13.7282
-13.7443
-13.2062
-13.2084
-13.2149
-13.2244
-13.2362
-13.2501
-13.2656
-13.2823
-13.3001
-13.3185
-13.3374
-13.3567
-13.3761
-13.3955
-13.415
-13.4344
-13.4536
-13.4726
-13.4915
-13.5101
-13.5286
-13.5468
-13.5648
-13.5826
-13.6001
-13.6174
-13.6345
-13.6513
-13.6679
-13.6842
-13.7001
-13.7157
-13.7309
-13.2141
-13.2162
-13.2223
-13.2313
-13.2424
-13.2555
-13.2702
-13.2861
-13.303
-13.3207
-13.3388
-13.3573
-13.376
-13.3948
-13.4136
-13.4324
-13.451
-13.4694
-13.4877
-13.5058
-13.5237
-13.5413
-13.5587
-13.5758
-13.5927
-13.6094
-13.6257
-13.6418
-13.6576
-13.6731
-13.6882
-13.703
-13.7173
-13.2212
-13.2232
-13.229
-13.2374
-13.2479
-13.2603
-13.2742
-13.2894
-13.3056
-13.3225
-13.3399
-13.3577
-13.3757
-13.3938
-13.412
-13.4301
-13.4482
-13.466
-13.4837
-13.5012
-13.5185
-13.5355
-13.5523
-13.5688
-13.5851
-13.601
-13.6167
-13.632
-13.6471
-13.6618
-13.6761
-13.69
-13.7035
-13.2275
-13.2294
-13.2348
-13.2428
-13.2528
-13.2645
-13.2778
-13.2922
-13.3077
-13.3239
-13.3406
-13.3577
-13.3751
-13.3926
-13.4101
-13.4277
-13.4451
-13.4624
-13.4795
-13.4964
-13.5131
-13.5295
-13.5456
-13.5615
-13.5771
-13.5924
-13.6074
-13.622
-13.6363
-13.6502
-13.6637
-13.6768
-13.6894
-13.233
-13.2348
-13.2399
-13.2475
-13.2569
-13.2681
-13.2807
-13.2945
-13.3093
-13.3249
-13.3409
-13.3574
-13.3742
-13.3911
-13.408
-13.425
-13.4418
-13.4585
-13.475
-13.4913
-13.5074
-13.5232
-13.5388
-13.554
-13.5689
-13.5835
-13.5978
-13.6117
-13.6252
-13.6384
-13.6511
-13.6634
-13.6753
-13.2376
-13.2393
-13.2441
-13.2513
-13.2603
-13.2709
-13.283
-13.2962
-13.3104
-13.3253
-13.3408
-13.3567
-13.3728
-13.3892
-13.4055
-13.4219
-13.4382
-13.4543
-13.4703
-13.486
-13.5015
-13.5167
-13.5316
-13.5462
-13.5605
-13.5744
-13.588
-13.6012
-13.614
-13.6264
-13.6384
-13.6499
-13.661
-13.2413
-13.2429
-13.2475
-13.2543
-13.2629
-13.2731
-13.2846
-13.2974
-13.311
-13.3254
-13.3404
-13.3557
-13.3713
-13.3871
-13.4029
-13.4187
-13.4344
-13.45
-13.4654
-13.4806
-13.4955
-13.5101
-13.5244
-13.5384
-13.552
-13.5653
-13.5781
-13.5906
-13.6027
-13.6144
-13.6256
-13.6364
-13.6467
-13.244
-13.2455
-13.2499
-13.2564
-13.2645
-13.2743
-13.2854
-13.2976
-13.3107
-13.3246
-13.3391
-13.3539
-13.369
-13.3843
-13.3996
-13.4149
-13.4301
-13.4452
-13.46
-13.4747
-13.489
-13.5031
-13.5168
-13.5301
-13.5431
-13.5558
-13.568
-13.5798
-13.5912
-13.6022
-13.6127
-13.6227
-13.6323
-13.2458
-13.2473
-13.2516
-13.2578
-13.2657
-13.2752
-13.2859
-13.2978
-13.3106
-13.324
-13.338
-13.3524
-13.3671
-13.3818
-13.3967
-13.4114
-13.4261
-13.4407
-13.455
-13.469
-13.4828
-13.4963
-13.5094
-13.5221
-13.5345
-13.5465
-13.558
-13.5692
-13.5799
-13.5901
-13.5999
-13.6093
-13.6182
-13.2466
-13.2479
-13.2517
-13.2575
-13.2649
-13.2739
-13.2843
-13.2957
-13.3081
-13.3213
-13.335
-13.349
-13.3633
-13.3777
-13.3922
-13.4066
-13.4208
-13.4349
-13.4488
-13.4624
-13.4757
-13.4886
-13.5012
-13.5135
-13.5253
-13.5367
-13.5476
-13.5582
-13.5682
-13.5778
-13.587
-13.5957
-13.6039
-13.2466
-13.2481
-13.2522
-13.2581
-13.2656
-13.2745
-13.2847
-13.296
-13.3081
-13.3209
-13.3341
-13.3477
-13.3616
-13.3755
-13.3894
-13.4033
-13.4171
-13.4306
-13.444
-13.457
-13.4697
-13.4821
-13.4941
-13.5057
-13.5169
-13.5276
-13.538
-13.5478
-13.5573
-13.5662
-13.5747
-13.5827
-13.5902
-13.2448
-13.2454
-13.2482
-13.2531
-13.2598
-13.2683
-13.2782
-13.2894
-13.3015
-13.3143
-13.3275
-13.3412
-13.355
-13.3688
-13.3827
-13.3964
-13.41
-13.4234
-13.4364
-13.4492
-13.4616
-13.4736
-13.4852
-13.4964
-13.5071
-13.5174
-13.5273
-13.5366
-13.5455
-13.5539
-13.5618
-13.5693
-13.5762
-13.244
-13.2465
-13.251
-13.2568
-13.264
-13.2726
-13.2823
-13.293
-13.3046
-13.3168
-13.3294
-13.3424
-13.3555
-13.3687
-13.3818
-13.3949
-13.4078
-13.4205
-13.4329
-13.4449
-13.4567
-13.468
-13.479
-13.4895
-13.4996
-13.5093
-13.5184
-13.5272
-13.5354
-13.5431
-13.5504
-13.5571
-13.5634
-13.2361
-13.234
-13.2343
-13.2379
-13.2444
-13.2532
-13.2638
-13.2756
-13.2882
-13.3015
-13.3152
-13.3291
-13.343
-13.3569
-13.3706
-13.3841
-13.3974
-13.4103
-13.4229
-13.435
-13.4468
-13.4581
-13.4689
-13.4793
-13.4891
-13.4985
-13.5074
-13.5158
-13.5237
-13.531
-13.5379
-13.5442
-13.55
-13.2437
-13.2501
-13.2558
-13.2607
-13.2664
-13.2736
-13.2822
-13.2919
-13.3025
-13.3138
-13.3256
-13.3377
-13.35
-13.3624
-13.3747
-13.3869
-13.399
-13.4108
-13.4223
-13.4335
-13.4443
-13.4547
-13.4647
-13.4742
-13.4833
-13.4919
-13.5001
-13.5077
-13.5149
-13.5215
-13.5277
-13.5333
-13.5385
-13.2117
-13.1982
-13.1932
-13.1983
-13.2082
-13.2206
-13.2345
-13.2494
-13.2648
-13.2803
-13.2958
-13.3112
-13.3262
-13.341
-13.3553
-13.3692
-13.3827
-13.3956
-13.4081
-13.4201
-13.4315
-13.4424
-13.4528
-13.4626
-13.4719
-13.4806
-13.4888
-13.4964
-13.5035
-13.51
-13.516
-13.5214
-13.5263
-13.2654
-13.2857
-13.2901
-13.2853
-13.2828
-13.2848
-13.2899
-13.2968
-13.3051
-13.3145
-13.3247
-13.3354
-13.3465
-13.3577
-13.369
-13.3802
-13.3913
-13.4022
-13.4128
-13.423
-13.4329
-13.4424
-13.4515
-13.4601
-13.4683
-13.476
-13.4832
-13.49
-13.4962
-13.5019
-13.5071
-13.5118
-13.516
-13.1426
-13.093
-13.0812
-13.1071
-13.1351
-13.1592
-13.1829
-13.2059
-13.2277
-13.2485
-13.2681
-13.2867
-13.3044
-13.3212
-13.3371
-13.3522
-13.3666
-13.3802
-13.3931
-13.4054
-13.4169
-13.4278
-13.4381
-13.4477
-13.4566
-13.465
-13.4727
-13.4799
-13.4864
-13.4924
-13.4977
-13.5025
-13.5067
-13.3908
-13.4256
-13.3947
-13.352
-13.3232
-13.3121
-13.3091
-13.3098
-13.3134
-13.3193
-13.3267
-13.3352
-13.3444
-13.3541
-13.364
-13.3739
-13.3839
-13.3937
-13.4033
-13.4127
-13.4217
-13.4304
-13.4387
-13.4465
-13.4539
-13.4609
-13.4674
-13.4734
-13.4789
-13.4839
-13.4884
-13.4924
-13.496
-12.8986
-12.7788
-12.8411
-12.9426
-13.0164
-13.0681
-13.1117
-13.1498
-13.1828
-13.2119
-13.238
-13.2615
-13.2829
-13.3026
-13.3208
-13.3376
-13.3533
-13.3679
-13.3816
-13.3943
-13.4062
-13.4173
-13.4276
-13.4372
-13.446
-13.4542
-13.4616
-13.4685
-13.4746
-13.4802
-13.4851
-13.4894
-13.493
-14.113
-13.7741
-13.5103
-13.3931
-13.343
-13.3176
-13.3024
-13.296
-13.296
-13.2999
-13.3062
-13.3142
-13.3233
-13.3331
-13.3433
-13.3536
-13.3639
-13.3741
-13.384
-13.3937
-13.403
-13.4119
-13.4204
-13.4284
-13.436
-13.4431
-13.4496
-13.4556
-13.4612
-13.4661
-13.4706
-13.4746
-13.478
-11.6094
-12.316
-12.7205
-12.8728
-12.9774
-13.0596
-13.119
-13.1638
-13.2002
-13.2303
-13.2559
-13.2782
-13.298
-13.316
-13.3324
-13.3476
-13.3616
-13.3747
-13.387
-13.3984
-13.4091
-13.4191
-13.4283
-13.4369
-13.4449
-13.4522
-13.4589
-13.4649
-13.4704
-13.4753
-13.4795
-13.4832
-13.4864
-13.6067
-13.8527
-13.9872
-14.0772
-14.1411
-14.1871
-14.2227
-14.2579
-14.2949
-14.3368
-14.3842
-14.4363
-14.4928
-14.5525
-14.6141
-14.6762
-14.7375
-14.7969
-14.8536
-14.9066
-14.9554
-14.9993
-15.0378
-15.0706
-15.097
-15.1167
-15.1289
-15.133
-15.1282
-15.1135
-15.088
-15.0507
-15.0004
-14.9362
-14.8569
-14.7615
-14.6489
-14.5183
-14.3687
-14.1995
-14.0098
-13.7993
-13.5673
-13.3136
-13.0382
-12.741
-12.4225
-12.083
-11.7235
-11.3449
-10.9485
-10.536
-10.1091
-9.66979
-9.22041
-8.76336
-8.30123
-7.83668
-7.37244
-6.91127
-6.45587
-6.00886
-5.57273
-5.1498
-4.74215
-4.35164
-3.97985
-3.62803
-3.29718
-2.98796
-2.70074
-2.43564
-2.1925
-1.97093
-1.77035
-1.59
-1.42896
-1.28621
-1.1606
-1.05092
-0.95589
-0.874153
-0.804318
-0.74495
-0.694584
-0.651718
-0.614855
-0.582448
-0.553042
-0.525037
-0.497187
-0.467697
-0.435997
-0.399431
-0.359503
-0.310281
-0.259682
-0.190744
-0.130616
-0.032563
-14.1991
-14.336
-14.2758
-14.208
-14.1808
-14.163
-14.1559
-14.1676
-14.1929
-14.233
-14.2856
-14.3471
-14.4145
-14.485
-14.556
-14.6254
-14.6915
-14.7535
-14.8107
-14.8628
-14.9098
-14.9514
-14.9877
-15.0182
-15.0426
-15.0604
-15.0709
-15.0734
-15.067
-15.0508
-15.0238
-14.9851
-14.9335
-14.8681
-14.7877
-14.6914
-14.5783
-14.4472
-14.2975
-14.1284
-13.9393
-13.7295
-13.4987
-13.2466
-12.9731
-12.6784
-12.3627
-12.0265
-11.6707
-11.2962
-10.9043
-10.4967
-10.0749
-9.64102
-9.19723
-8.74588
-8.28947
-7.83059
-7.37191
-6.91612
-6.46585
-6.02369
-5.59207
-5.17327
-4.76936
-4.38215
-4.01319
-3.66373
-3.33474
-3.02689
-2.74056
-2.47587
-2.23268
-2.01064
-1.8092
-1.62762
-1.46505
-1.32049
-1.19286
-1.08098
-0.983633
-0.899509
-0.827267
-0.765514
-0.712823
-0.667723
-0.628739
-0.594347
-0.563088
-0.533396
-0.503969
-0.473128
-0.44005
-0.4026
-0.361186
-0.312181
-0.258657
-0.194104
-0.123082
-0.0494208
-13.911
-13.9188
-13.941
-13.9917
-14.0476
-14.0947
-14.135
-14.1696
-14.207
-14.2474
-14.2913
-14.3394
-14.3918
-14.4477
-14.506
-14.5656
-14.6253
-14.6839
-14.7402
-14.7932
-14.842
-14.8857
-14.9238
-14.9555
-14.9805
-14.9981
-15.0079
-15.0092
-15.0013
-14.9835
-14.9548
-14.9145
-14.8614
-14.7946
-14.7131
-14.6159
-14.5021
-14.3707
-14.2209
-14.0521
-13.8635
-13.6547
-13.4253
-13.175
-12.9037
-12.6116
-12.299
-11.9663
-11.6144
-11.2442
-10.857
-10.4543
-10.0378
-9.60934
-9.17114
-8.72547
-8.27477
-7.8216
-7.36856
-6.91828
-6.47334
-6.03628
-5.60946
-5.19512
-4.79527
-4.41168
-4.04586
-3.69905
-3.3722
-3.06596
-2.78073
-2.51664
-2.27358
-2.05122
-1.84905
-1.66637
-1.50236
-1.35607
-1.22646
-1.11241
-1.01272
-0.926156
-0.851416
-0.787158
-0.731996
-0.684501
-0.643224
-0.606671
-0.573388
-0.541845
-0.510689
-0.478361
-0.443791
-0.405357
-0.362393
-0.313552
-0.257117
-0.196909
-0.115216
-0.0655597
-13.9652
-14.0761
-14.1365
-14.1545
-14.1619
-14.1667
-14.1721
-14.1809
-14.1993
-14.231
-14.271
-14.3182
-14.3712
-14.4279
-14.4862
-14.5444
-14.601
-14.655
-14.7055
-14.752
-14.7942
-14.8317
-14.8643
-14.8914
-14.9127
-14.9275
-14.935
-14.9346
-14.9254
-14.9064
-14.8766
-14.8353
-14.7813
-14.7136
-14.6313
-14.5335
-14.4193
-14.2877
-14.138
-13.9696
-13.7818
-13.5741
-13.3461
-13.0977
-12.8288
-12.5394
-12.2299
-11.9007
-11.5528
-11.1869
-10.8044
-10.4067
-9.99549
-9.57262
-9.14019
-8.70045
-8.25579
-7.80869
-7.36169
-6.91734
-6.47817
-6.04663
-5.62503
-5.21553
-4.82009
-4.44044
-4.07805
-3.73412
-3.4096
-3.10514
-2.82115
-2.55778
-2.31496
-2.09238
-1.88956
-1.70586
-1.5405
-1.39255
-1.26103
-1.14485
-1.04286
-0.953854
-0.876586
-0.809757
-0.752025
-0.702008
-0.65829
-0.619418
-0.583948
-0.550393
-0.517357
-0.483404
-0.447226
-0.407711
-0.363138
-0.314401
-0.255101
-0.199147
-0.107193
-0.0807164
-13.9312
-13.9784
-13.995
-14.0097
-14.0357
-14.0655
-14.0954
-14.1303
-14.1725
-14.2112
-14.2535
-14.3
-14.3495
-14.4011
-14.4537
-14.5064
-14.5584
-14.6087
-14.6566
-14.7013
-14.7421
-14.7783
-14.8094
-14.8346
-14.8536
-14.8656
-14.8701
-14.8665
-14.8539
-14.8318
-14.7991
-14.755
-14.6986
-14.629
-14.545
-14.4459
-14.3307
-14.1986
-14.0488
-13.8806
-13.6934
-13.4867
-13.2603
-13.0137
-12.7471
-12.4605
-12.1543
-11.8288
-11.485
-11.1237
-10.7462
-10.3539
-9.94831
-9.5314
-9.10517
-8.67179
-8.23361
-7.79302
-7.35249
-6.91451
-6.48152
-6.05588
-5.63983
-5.23547
-4.84469
-4.46918
-4.11036
-3.76945
-3.44735
-3.14474
-2.86205
-2.59945
-2.35688
-2.1341
-1.93067
-1.74597
-1.57927
-1.4297
-1.29629
-1.17801
-1.07374
-0.982324
-0.902534
-0.833116
-0.77277
-0.720154
-0.673894
-0.632579
-0.594783
-0.559075
-0.524022
-0.488315
-0.45042
-0.409726
-0.363494
-0.314797
-0.252704
-0.200873
-0.0992286
-0.094698
-13.9199
-13.9747
-14.0184
-14.0536
-14.0835
-14.1088
-14.1325
-14.1503
-14.1738
-14.2053
-14.2419
-14.2832
-14.3282
-14.376
-14.4253
-14.4748
-14.5235
-14.5704
-14.6145
-14.6552
-14.6918
-14.7239
-14.751
-14.7725
-14.788
-14.7969
-14.7985
-14.7923
-14.7773
-14.7528
-14.7179
-14.6718
-14.6134
-14.5418
-14.4563
-14.3558
-14.2395
-14.1066
-13.9564
-13.7882
-13.6014
-13.3956
-13.1705
-12.9258
-12.6615
-12.3777
-12.0748
-11.7532
-11.4137
-11.0572
-10.6849
-10.2981
-9.89854
-9.48792
-9.06823
-8.64159
-8.21025
-7.77653
-7.34281
-6.91149
-6.48491
-6.06535
-5.655
-5.25588
-4.86982
-4.49848
-4.14327
-3.80537
-3.4857
-3.18494
-2.90354
-2.6417
-2.39939
-2.17641
-1.97234
-1.78664
-1.6186
-1.46739
-1.3321
-1.21172
-1.10518
-1.01135
-0.929037
-0.857024
-0.794045
-0.738795
-0.689934
-0.646094
-0.605875
-0.567902
-0.530718
-0.493144
-0.453437
-0.411479
-0.363549
-0.314831
-0.250042
-0.202165
-0.0915377
-0.107369
-13.9069
-13.9517
-13.9857
-14.0114
-14.0352
-14.0589
-14.0827
-14.115
-14.147
-14.1819
-14.2198
-14.2606
-14.3039
-14.3489
-14.3947
-14.4405
-14.4852
-14.5282
-14.5686
-14.6059
-14.6394
-14.6685
-14.6927
-14.7113
-14.724
-14.7299
-14.7285
-14.7192
-14.7012
-14.6738
-14.636
-14.5872
-14.5264
-14.4527
-14.3653
-14.2633
-14.1458
-14.0122
-13.8615
-13.6934
-13.5071
-13.3022
-13.0785
-12.8358
-12.5739
-12.2931
-11.9936
-11.6761
-11.3411
-10.9896
-10.6227
-10.2419
-9.84853
-9.44446
-9.03155
-8.61184
-8.1875
-7.76076
-7.33391
-6.90927
-6.4891
-6.07561
-5.67091
-5.27697
-4.89559
-4.52838
-4.17674
-3.84181
-3.52455
-3.22563
-2.9455
-2.68441
-2.44236
-2.21917
-2.01449
-1.82778
-1.6584
-1.50555
-1.36837
-1.24588
-1.13706
-1.0408
-0.955955
-0.881335
-0.815705
-0.757796
-0.706298
-0.659885
-0.61718
-0.576867
-0.537469
-0.497945
-0.456355
-0.413062
-0.363412
-0.314617
-0.247255
-0.203119
-0.0843277
-0.118656
-13.8944
-13.935
-13.97
-14.0004
-14.0291
-14.0572
-14.0844
-14.1098
-14.1381
-14.1694
-14.2037
-14.241
-14.2807
-14.322
-14.3642
-14.4064
-14.4476
-14.4871
-14.5242
-14.558
-14.5881
-14.6138
-14.6346
-14.65
-14.6593
-14.6621
-14.6577
-14.6454
-14.6245
-14.5943
-14.554
-14.5027
-14.4396
-14.3639
-14.2747
-14.1712
-14.0525
-13.9181
-13.767
-13.5989
-13.4131
-13.2092
-12.987
-12.7462
-12.4868
-12.2091
-11.9132
-11.5998
-11.2694
-10.923
-10.5617
-10.1868
-9.79972
-9.4022
-8.99604
-8.58322
-8.1658
-7.74596
-7.32589
-6.90783
-6.49398
-6.08647
-5.68734
-5.29852
-4.92175
-4.55863
-4.21051
-3.87854
-3.56366
-3.26657
-2.98773
-2.7274
-2.48561
-2.26224
-2.05694
-1.86924
-1.69853
-1.54405
-1.40498
-1.28039
-1.16928
-1.07059
-0.983198
-0.905957
-0.83766
-0.777072
-0.722912
-0.673893
-0.628662
-0.585961
-0.544299
-0.502769
-0.459249
-0.414574
-0.363204
-0.314279
-0.244488
-0.203836
-0.0777689
-0.128533
-13.882
-13.9187
-13.9517
-13.9809
-14.008
-14.0339
-14.0602
-14.0872
-14.1165
-14.1479
-14.1815
-14.2172
-14.2546
-14.2933
-14.3323
-14.3712
-14.409
-14.445
-14.4786
-14.5091
-14.5359
-14.5584
-14.576
-14.5883
-14.5947
-14.5944
-14.5871
-14.5719
-14.5482
-14.5153
-14.4724
-14.4186
-14.3533
-14.2756
-14.1846
-14.0797
-13.9599
-13.8247
-13.6734
-13.5054
-13.3201
-13.1173
-12.8966
-12.6578
-12.4011
-12.1264
-11.8342
-11.5248
-11.1991
-10.8578
-10.502
-10.1329
-9.75205
-9.361
-8.9615
-8.55546
-8.14487
-7.73182
-7.31844
-6.90687
-6.49924
-6.09762
-5.704
-5.32024
-4.94805
-4.58897
-4.24435
-3.91534
-3.60285
-3.30758
-3.03004
-2.77048
-2.52899
-2.30544
-2.09955
-1.91089
-1.73886
-1.58278
-1.44183
-1.31515
-1.20175
-1.10063
-1.01069
-0.930822
-0.859848
-0.796567
-0.739728
-0.688084
-0.640304
-0.595188
-0.551233
-0.507664
-0.462194
-0.416104
-0.363031
-0.313921
-0.241867
-0.204391
-0.0719701
-0.137005
-13.8695
-13.9033
-13.9348
-13.9638
-13.9912
-14.0181
-14.0446
-14.0715
-14.0996
-14.1293
-14.1608
-14.194
-14.2287
-14.2642
-14.3001
-14.3356
-14.37
-14.4027
-14.4329
-14.4601
-14.4836
-14.5029
-14.5174
-14.5266
-14.5298
-14.5266
-14.5163
-14.4983
-14.4719
-14.4363
-14.3909
-14.3348
-14.2674
-14.1877
-14.0951
-13.9888
-13.8681
-13.7322
-13.5807
-13.4128
-13.2282
-13.0264
-12.8073
-12.5706
-12.3165
-12.0449
-11.7563
-11.451
-11.1298
-10.7936
-10.4432
-10.08
-9.70523
-9.32056
-8.92763
-8.52828
-8.12443
-7.71808
-7.31129
-6.90613
-6.50465
-6.10887
-5.7207
-5.34196
-4.9743
-4.61926
-4.27813
-3.95206
-3.64196
-3.34854
-3.0723
-2.81354
-2.57236
-2.34867
-2.14222
-1.95261
-1.7793
-1.62162
-1.47882
-1.35005
-1.23439
-1.13084
-1.03836
-0.955868
-0.882214
-0.816234
-0.75671
-0.702431
-0.65209
-0.604546
-0.558286
-0.512664
-0.465238
-0.417714
-0.362969
-0.313616
-0.239471
-0.204827
-0.066971
-0.144102
-13.8569
-13.8882
-13.9182
-13.9463
-13.9732
-13.9994
-14.0254
-14.0517
-14.079
-14.1076
-14.1376
-14.1688
-14.2011
-14.2339
-14.2669
-14.2992
-14.3304
-14.3598
-14.3868
-14.4107
-14.431
-14.4471
-14.4585
-14.4647
-14.4649
-14.4588
-14.4456
-14.4248
-14.3956
-14.3575
-14.3096
-14.2513
-14.1818
-14.1003
-14.0062
-13.8986
-13.7769
-13.6405
-13.4887
-13.321
-13.1371
-12.9365
-12.7189
-12.4844
-12.2328
-11.9643
-11.6793
-11.3781
-11.0615
-10.7302
-10.3852
-10.0277
-9.65905
-9.28068
-8.89425
-8.5015
-8.10429
-7.70456
-7.30429
-6.90547
-6.51009
-6.12008
-5.73732
-5.36355
-5.00041
-4.64938
-4.31174
-3.98861
-3.68091
-3.38935
-3.11444
-2.8565
-2.61565
-2.39185
-2.18486
-1.99433
-1.81975
-1.66051
-1.51588
-1.38505
-1.26713
-1.16117
-1.06616
-0.981038
-0.904708
-0.836031
-0.773821
-0.716905
-0.664002
-0.614026
-0.56546
-0.517779
-0.468403
-0.419434
-0.363051
-0.313393
-0.237335
-0.205152
-0.0627545
-0.149875
-13.8441
-13.8734
-13.9018
-13.929
-13.9553
-13.981
-14.0065
-14.0323
-14.0586
-14.0859
-14.1141
-14.1432
-14.173
-14.2031
-14.2331
-14.2624
-14.2904
-14.3166
-14.3404
-14.3611
-14.3783
-14.3913
-14.3996
-14.4027
-14.4
-14.391
-14.375
-14.3514
-14.3196
-14.2789
-14.2287
-14.1681
-14.0966
-14.0134
-13.9177
-13.8089
-13.6864
-13.5494
-13.3975
-13.2301
-13.0468
-12.8474
-12.6315
-12.399
-12.1501
-11.8847
-11.6032
-11.3061
-10.994
-10.6676
-10.3279
-9.97612
-9.61342
-9.24127
-8.86124
-8.47502
-8.08438
-7.69119
-7.29736
-6.90481
-6.51546
-6.13118
-5.75377
-5.38495
-5.0263
-4.67926
-4.3451
-4.02492
-3.71963
-3.42994
-3.15638
-2.89929
-2.6588
-2.4349
-2.22741
-2.03599
-1.86017
-1.69939
-1.55294
-1.42006
-1.2999
-1.19155
-1.09401
-1.00629
-0.927287
-0.855919
-0.791027
-0.731478
-0.676017
-0.623611
-0.572743
-0.523004
-0.471689
-0.421265
-0.363287
-0.313256
-0.235463
-0.205362
-0.0592697
-0.154403
-13.831
-13.8586
-13.8856
-13.9118
-13.9372
-13.9621
-13.9869
-14.0117
-14.037
-14.0628
-14.0893
-14.1165
-14.1439
-14.1715
-14.1987
-14.225
-14.25
-14.2731
-14.2937
-14.3113
-14.3254
-14.3353
-14.3406
-14.3407
-14.3351
-14.3232
-14.3044
-14.2782
-14.2438
-14.2006
-14.1481
-14.0854
-14.0119
-13.927
-13.8299
-13.7199
-13.5965
-13.4591
-13.3071
-13.14
-12.9575
-12.7592
-12.5449
-12.3146
-12.0682
-11.8059
-11.5279
-11.2349
-10.9272
-10.6057
-10.2713
-9.92509
-9.5683
-9.20229
-8.82859
-8.4488
-8.06465
-7.67792
-7.29045
-6.9041
-6.52072
-6.14211
-5.77002
-5.40611
-5.05192
-4.70886
-4.37817
-4.06093
-3.75806
-3.47026
-3.19806
-2.94183
-2.70174
-2.47778
-2.2698
-2.07752
-1.90049
-1.73819
-1.58995
-1.45505
-1.33267
-1.22193
-1.12189
-1.03157
-0.949911
-0.875863
-0.808298
-0.746123
-0.688111
-0.633282
-0.580121
-0.528328
-0.475089
-0.423202
-0.363671
-0.3132
-0.233844
-0.205454
-0.0564531
-0.157787
-13.8178
-13.8438
-13.8694
-13.8944
-13.9189
-13.943
-13.9668
-13.9907
-14.0148
-14.0392
-14.064
-14.0891
-14.1143
-14.1393
-14.1638
-14.1873
-14.2093
-14.2293
-14.2469
-14.2614
-14.2724
-14.2794
-14.2817
-14.2789
-14.2704
-14.2556
-14.2341
-14.2052
-14.1683
-14.1227
-14.0679
-14.0031
-13.9278
-13.8412
-13.7427
-13.6316
-13.5074
-13.3696
-13.2175
-13.0507
-12.869
-12.6719
-12.4593
-12.231
-11.9872
-11.728
-11.4536
-11.1644
-10.8612
-10.5445
-10.2153
-9.87463
-9.52367
-9.16372
-8.79626
-8.42282
-8.04507
-7.66473
-7.28355
-6.90332
-6.52584
-6.15284
-5.78601
-5.42697
-5.07722
-4.73811
-4.41088
-4.09659
-3.79613
-3.51023
-3.23943
-2.98408
-2.7444
-2.5204
-2.31198
-2.11886
-1.94065
-1.77686
-1.62686
-1.48996
-1.36538
-1.25228
-1.14975
-1.05684
-0.972545
-0.895829
-0.825605
-0.760816
-0.700265
-0.643024
-0.587582
-0.533741
-0.478596
-0.425241
-0.364199
-0.313222
-0.232471
-0.205432
-0.0542397
-0.160144
-13.8044
-13.8289
-13.8532
-13.877
-13.9004
-13.9235
-13.9463
-13.9691
-13.9919
-14.0148
-14.0378
-14.0609
-14.0839
-14.1065
-14.1284
-14.1491
-14.1682
-14.1854
-14.1999
-14.2115
-14.2195
-14.2235
-14.2228
-14.2171
-14.2058
-14.1883
-14.1641
-14.1326
-14.0932
-14.0453
-13.9882
-13.9214
-13.8443
-13.7561
-13.6562
-13.5441
-13.4192
-13.2809
-13.1288
-12.9624
-12.7814
-12.5855
-12.3746
-12.1485
-11.9072
-11.651
-11.3801
-11.0949
-10.796
-10.484
-10.16
-9.82477
-9.47954
-9.12558
-8.76426
-8.39709
-8.02565
-7.65159
-7.27662
-6.90244
-6.53079
-6.16334
-5.80172
-5.44751
-5.10215
-4.76698
-4.44319
-4.13184
-3.8338
-3.54981
-3.28041
-3.02598
-2.78673
-2.56273
-2.35388
-2.15996
-1.9806
-1.81534
-1.6636
-1.52473
-1.39798
-1.28254
-1.17755
-1.08207
-0.995152
-0.915785
-0.842918
-0.775532
-0.712458
-0.652819
-0.595112
-0.539236
-0.482205
-0.427378
-0.364869
-0.313322
-0.231334
-0.205308
-0.0525662
-0.161601
-13.7907
-13.8138
-13.8368
-13.8595
-13.8818
-13.9037
-13.9255
-13.947
-13.9684
-13.9898
-14.0111
-14.0323
-14.0531
-14.0733
-14.0926
-14.1106
-14.127
-14.1412
-14.1529
-14.1615
-14.1666
-14.1677
-14.1642
-14.1556
-14.1415
-14.1213
-14.0945
-14.0604
-14.0186
-13.9684
-13.9092
-13.8404
-13.7615
-13.6717
-13.5706
-13.4575
-13.3318
-13.1932
-13.0411
-12.8751
-12.6949
-12.5002
-12.2909
-12.0669
-11.8282
-11.575
-11.3075
-11.0262
-10.7316
-10.4244
-10.1053
-9.77551
-9.43594
-9.08786
-8.7326
-8.3716
-8.00637
-7.63852
-7.26966
-6.90145
-6.53555
-6.17358
-5.81712
-5.46768
-5.12668
-4.79541
-4.47505
-4.16662
-3.87101
-3.58894
-3.32095
-3.06745
-2.82866
-2.60468
-2.39544
-2.20074
-2.02027
-1.85358
-1.70013
-1.55932
-1.43042
-1.31267
-1.20523
-1.10722
-1.01769
-0.935698
-0.860209
-0.790246
-0.724669
-0.662651
-0.6027
-0.544802
-0.485908
-0.42961
-0.365679
-0.313503
-0.230424
-0.205099
-0.0513705
-0.162285
-13.7767
-13.7986
-13.8203
-13.8418
-13.8629
-13.8837
-13.9042
-13.9245
-13.9445
-13.9643
-13.9839
-14.0031
-14.0217
-14.0396
-14.0564
-14.0719
-14.0855
-14.097
-14.1059
-14.1116
-14.1139
-14.1121
-14.1057
-14.0944
-14.0776
-14.0547
-14.0253
-13.9887
-13.9445
-13.8921
-13.8308
-13.7601
-13.6794
-13.5882
-13.4858
-13.3718
-13.2455
-13.1066
-12.9545
-12.7889
-12.6095
-12.4161
-12.2084
-11.9864
-11.7503
-11.5
-11.2359
-10.9584
-10.6681
-10.3655
-10.0514
-9.7269
-9.3929
-9.0506
-8.7013
-8.34636
-7.98726
-7.6255
-7.26266
-6.90033
-6.5401
-6.18354
-5.83217
-5.48746
-5.15077
-4.82337
-4.50641
-4.2009
-3.90771
-3.62755
-3.36099
-3.10843
-2.87014
-2.6462
-2.4366
-2.24116
-2.05959
-1.8915
-1.73639
-1.59366
-1.46264
-1.34261
-1.23275
-1.13223
-1.04013
-0.955529
-0.877443
-0.804928
-0.736873
-0.672499
-0.610329
-0.550428
-0.489698
-0.431933
-0.366623
-0.313766
-0.229729
-0.204824
-0.0505905
-0.16232
-13.7626
-13.7832
-13.8036
-13.8239
-13.8438
-13.8634
-13.8826
-13.9016
-13.9202
-13.9384
-13.9562
-13.9734
-13.99
-14.0056
-14.02
-14.033
-14.044
-14.0528
-14.0589
-14.0619
-14.0613
-14.0567
-14.0476
-14.0336
-14.0141
-13.9886
-13.9567
-13.9177
-13.8712
-13.8165
-13.7532
-13.6807
-13.5984
-13.5057
-13.4021
-13.2871
-13.1603
-13.021
-12.869
-12.7039
-12.5253
-12.3331
-12.127
-11.9072
-11.6735
-11.4262
-11.1654
-10.8917
-10.6055
-10.3075
-9.99833
-9.67898
-9.35044
-9.01383
-8.67038
-8.3214
-7.96831
-7.61255
-7.25563
-6.89908
-6.54444
-6.1932
-5.84685
-5.5068
-5.17438
-4.85081
-4.53722
-4.23461
-3.94383
-3.66559
-3.40047
-3.14887
-2.91108
-2.68722
-2.47728
-2.28113
-2.09851
-1.92905
-1.7723
-1.62769
-1.49459
-1.3723
-1.26006
-1.15705
-1.06241
-0.975238
-0.894585
-0.819546
-0.749042
-0.68234
-0.617978
-0.556097
-0.493561
-0.434336
-0.367691
-0.314109
-0.229229
-0.204502
-0.0501629
-0.161825
-13.7481
-13.7676
-13.7868
-13.8058
-13.8245
-13.8428
-13.8608
-13.8784
-13.8955
-13.9121
-13.9281
-13.9435
-13.958
-13.9714
-13.9835
-13.9939
-14.0024
-14.0086
-14.012
-14.0123
-14.009
-14.0017
-13.99
-13.9733
-13.9512
-13.9232
-13.8887
-13.8474
-13.7986
-13.7418
-13.6766
-13.6022
-13.5183
-13.4242
-13.3195
-13.2037
-13.0762
-12.9368
-12.7848
-12.6201
-12.4424
-12.2514
-12.047
-11.8291
-11.5979
-11.3535
-11.0961
-10.8261
-10.544
-10.2504
-9.94604
-9.6318
-9.30862
-8.97758
-8.63987
-8.29674
-7.94954
-7.59967
-7.24856
-6.8977
-6.54854
-6.20255
-5.86115
-5.52569
-5.19747
-4.87769
-4.56745
-4.26771
-3.97932
-3.703
-3.43931
-3.18869
-2.95142
-2.72766
-2.51742
-2.32058
-2.13694
-1.96616
-1.8078
-1.66134
-1.5262
-1.4017
-1.28711
-1.18165
-1.08449
-0.994783
-0.911596
-0.834066
-0.761146
-0.692146
-0.625625
-0.56179
-0.497478
-0.436807
-0.368867
-0.314525
-0.2289
-0.20415
-0.050023
-0.160911
-13.7335
-13.7518
-13.7698
-13.7876
-13.805
-13.8221
-13.8387
-13.8549
-13.8705
-13.8855
-13.8998
-13.9133
-13.9257
-13.937
-13.9468
-13.9549
-13.9609
-13.9645
-13.9654
-13.963
-13.9571
-13.9472
-13.9328
-13.9135