/*--------------------------------*- C++ -*----------------------------------*\
| =========                 |                                                 |
| \\      /  F ield         | OpenFOAM: The Open Source CFD Toolbox           |
|  \\    /   O peration     | Version:  2.1.1                                 |
|   \\  /    A nd           | Web:      www.OpenFOAM.org                      |
|    \\/     M anipulation  |                                                 |
\*---------------------------------------------------------------------------*/
FoamFile
{
    version     2.0;
    format      ascii;
    class       surfaceScalarField;
    location    "0.165";
    object      phi;
}
// * * * * * * * * * * * * * * * * * * * * * * * * * * * * * * * * * * * * * //

dimensions      [0 3 -1 0 0 0 0];

internalField   nonuniform List<scalar> 
13452
(
6.89923e-05
-5.0499e-07
6.88134e-05
1.78881e-07
6.82017e-05
6.11644e-07
6.7254e-05
9.47771e-07
6.61769e-05
1.07702e-06
6.50849e-05
1.09208e-06
6.40195e-05
1.06539e-06
6.29981e-05
1.02138e-06
6.20291e-05
9.69014e-07
6.11159e-05
9.1319e-07
6.02596e-05
8.56327e-07
5.94597e-05
7.99874e-07
5.87149e-05
7.44779e-07
5.80232e-05
6.91707e-07
5.73821e-05
6.41104e-07
5.67888e-05
5.93255e-07
5.62405e-05
5.48314e-07
5.57342e-05
5.06339e-07
5.52669e-05
4.67317e-07
5.48357e-05
4.31183e-07
5.44378e-05
3.97845e-07
5.40706e-05
3.672e-07
5.37315e-05
3.39151e-07
5.34179e-05
3.13634e-07
5.31272e-05
2.9065e-07
5.28569e-05
2.7032e-07
5.26039e-05
2.52993e-07
5.23643e-05
2.3955e-07
5.21327e-05
2.31628e-07
5.18984e-05
2.34324e-07
5.16427e-05
2.55699e-07
5.13161e-05
3.26579e-07
5.11078e-07
5.0805e-05
7.01649e-05
-2.25984e-07
7.00411e-05
3.02743e-07
7.01816e-05
4.71078e-07
7.05089e-05
6.20558e-07
7.08592e-05
7.26642e-07
7.1158e-05
7.93347e-07
7.13824e-05
8.40929e-07
7.15343e-05
8.69532e-07
7.16214e-05
8.81853e-07
7.16528e-05
8.81872e-07
7.16365e-05
8.72535e-07
7.15802e-05
8.56173e-07
7.14904e-05
8.34592e-07
7.13729e-05
8.09259e-07
7.12326e-05
7.81351e-07
7.10741e-05
7.51808e-07
7.0901e-05
7.21379e-07
7.07167e-05
6.90656e-07
7.05239e-05
6.60098e-07
7.0325e-05
6.30061e-07
7.01221e-05
6.00819e-07
6.99167e-05
5.7259e-07
6.97103e-05
5.4556e-07
6.9504e-05
5.19906e-07
6.92988e-05
4.95845e-07
6.90955e-05
4.73653e-07
6.88946e-05
4.53846e-07
6.86971e-05
4.37059e-07
6.85036e-05
4.25084e-07
6.83191e-05
4.18826e-07
6.81493e-05
4.2559e-07
6.80412e-05
4.34643e-07
4.73122e-07
6.80791e-05
7.22816e-05
-5.10379e-08
7.23967e-05
1.87658e-07
7.25014e-05
3.66345e-07
7.25878e-05
5.34169e-07
7.26709e-05
6.43507e-07
7.27528e-05
7.11483e-07
7.28388e-05
7.54969e-07
7.29253e-05
7.83024e-07
7.30083e-05
7.98824e-07
7.30852e-05
8.04918e-07
7.31545e-05
8.03263e-07
7.32153e-05
7.95432e-07
7.32672e-05
7.82705e-07
7.33102e-05
7.66199e-07
7.33447e-05
7.46861e-07
7.3371e-05
7.25478e-07
7.33897e-05
7.02707e-07
7.34013e-05
6.79085e-07
7.34063e-05
6.55048e-07
7.34054e-05
6.30951e-07
7.33992e-05
6.07084e-07
7.33881e-05
5.83693e-07
7.33726e-05
5.60998e-07
7.33533e-05
5.39216e-07
7.33306e-05
5.18602e-07
7.33048e-05
4.99463e-07
7.32763e-05
4.82298e-07
7.32457e-05
4.67653e-07
7.32139e-05
4.56897e-07
7.31825e-05
4.50249e-07
7.31556e-05
4.52491e-07
7.31358e-05
4.54375e-07
4.80811e-07
7.31281e-05
7.45185e-05
-4.28715e-08
7.4488e-05
2.18092e-07
7.44764e-05
3.7793e-07
7.45158e-05
4.94774e-07
7.45759e-05
5.83452e-07
7.4642e-05
6.45407e-07
7.47075e-05
6.8941e-07
7.4771e-05
7.1952e-07
7.48322e-05
7.37694e-07
7.48908e-05
7.463e-07
7.49467e-05
7.47364e-07
7.49997e-05
7.42446e-07
7.50496e-05
7.32792e-07
7.50963e-05
7.19463e-07
7.51398e-05
7.03338e-07
7.51802e-05
6.85147e-07
7.52174e-05
6.65495e-07
7.52516e-05
6.44878e-07
7.52829e-05
6.23705e-07
7.53116e-05
6.02313e-07
7.53377e-05
5.8098e-07
7.53614e-05
5.59948e-07
7.5383e-05
5.39433e-07
7.54025e-05
5.19653e-07
7.54203e-05
5.0085e-07
7.54364e-05
4.83301e-07
7.54513e-05
4.67414e-07
7.54654e-05
4.53578e-07
7.54797e-05
4.42623e-07
7.54955e-05
4.34446e-07
7.55172e-05
4.30756e-07
7.55459e-05
4.25723e-07
4.2337e-07
7.56033e-05
7.66035e-05
9.45438e-09
7.66281e-05
1.93508e-07
7.66644e-05
3.41658e-07
7.67023e-05
4.56829e-07
7.67405e-05
5.45315e-07
7.67797e-05
6.06152e-07
7.68213e-05
6.478e-07
7.68649e-05
6.75971e-07
7.69093e-05
6.93268e-07
7.69538e-05
7.0184e-07
7.69977e-05
7.03456e-07
7.70406e-05
6.99487e-07
7.70824e-05
6.91057e-07
7.71227e-05
6.79128e-07
7.71615e-05
6.64507e-07
7.71988e-05
6.4787e-07
7.72345e-05
6.29778e-07
7.72687e-05
6.10699e-07
7.73014e-05
5.91016e-07
7.73327e-05
5.71049e-07
7.73626e-05
5.51064e-07
7.73912e-05
5.3129e-07
7.74187e-05
5.11936e-07
7.74452e-05
4.93202e-07
7.74707e-05
4.75303e-07
7.74956e-05
4.58464e-07
7.752e-05
4.4298e-07
7.75445e-05
4.29083e-07
7.75699e-05
4.17177e-07
7.75975e-05
4.0692e-07
7.76296e-05
3.98664e-07
7.76668e-05
3.88432e-07
3.76982e-07
7.77132e-05
7.88311e-05
2.42367e-08
7.88387e-05
1.85959e-07
7.88567e-05
3.23651e-07
7.88854e-05
4.28157e-07
7.89215e-05
5.09223e-07
7.89603e-05
5.67264e-07
7.90001e-05
6.08001e-07
7.90402e-05
6.35951e-07
7.908e-05
6.53412e-07
7.91195e-05
6.62359e-07
7.91584e-05
6.64517e-07
7.91967e-05
6.61243e-07
7.92341e-05
6.53635e-07
7.92706e-05
6.42621e-07
7.93061e-05
6.28974e-07
7.93407e-05
6.1334e-07
7.93742e-05
5.96256e-07
7.94067e-05
5.78165e-07
7.94383e-05
5.59435e-07
7.9469e-05
5.40371e-07
7.94988e-05
5.21228e-07
7.95279e-05
5.02224e-07
7.95563e-05
4.83553e-07
7.95841e-05
4.65395e-07
7.96115e-05
4.47928e-07
7.96386e-05
4.31323e-07
7.96658e-05
4.15763e-07
7.96936e-05
4.01346e-07
7.97226e-05
3.88176e-07
7.97537e-05
3.75808e-07
7.97884e-05
3.63904e-07
7.9827e-05
3.49856e-07
3.32855e-07
7.98711e-05
8.10847e-05
3.80707e-08
8.10946e-05
1.76046e-07
8.1118e-05
3.00302e-07
8.11485e-05
3.9765e-07
8.11829e-05
4.74772e-07
8.12187e-05
5.31528e-07
8.1255e-05
5.71699e-07
8.12916e-05
5.99294e-07
8.13283e-05
6.167e-07
8.13648e-05
6.25853e-07
8.1401e-05
6.2841e-07
8.14365e-05
6.2568e-07
8.14714e-05
6.18723e-07
8.15056e-05
6.08429e-07
8.15391e-05
5.95541e-07
8.15717e-05
5.8068e-07
8.16036e-05
5.64359e-07
8.16348e-05
5.47008e-07
8.16652e-05
5.28979e-07
8.1695e-05
5.10565e-07
8.17242e-05
4.92011e-07
8.17529e-05
4.73523e-07
8.17812e-05
4.55279e-07
8.18092e-05
4.37435e-07
8.1837e-05
4.20133e-07
8.18648e-05
4.0349e-07
8.1893e-05
3.876e-07
8.19219e-05
3.7246e-07
8.1952e-05
3.57993e-07
8.19841e-05
3.43733e-07
8.20189e-05
3.29118e-07
8.20563e-05
3.12428e-07
2.92702e-07
8.20965e-05
8.34101e-05
4.35548e-08
8.34199e-05
1.66183e-07
8.34406e-05
2.79585e-07
8.3468e-05
3.70272e-07
8.35002e-05
4.42602e-07
8.35347e-05
4.96992e-07
8.35703e-05
5.36142e-07
8.36062e-05
5.63363e-07
8.36421e-05
5.80839e-07
8.36776e-05
5.90329e-07
8.37126e-05
5.93374e-07
8.37471e-05
5.9123e-07
8.37809e-05
5.84925e-07
8.3814e-05
5.75318e-07
8.38464e-05
5.63132e-07
8.38781e-05
5.48966e-07
8.39091e-05
5.3332e-07
8.39395e-05
5.16607e-07
8.39694e-05
4.99169e-07
8.39986e-05
4.81289e-07
8.40274e-05
4.632e-07
8.40559e-05
4.45098e-07
8.4084e-05
4.27144e-07
8.4112e-05
4.09472e-07
8.41399e-05
3.92191e-07
8.4168e-05
3.75372e-07
8.41966e-05
3.59044e-07
8.42259e-05
3.43138e-07
8.42564e-05
3.27487e-07
8.42885e-05
3.11656e-07
8.43225e-05
2.95076e-07
8.43583e-05
2.76614e-07
2.55508e-07
8.43955e-05
8.57963e-05
4.59754e-08
8.58061e-05
1.56404e-07
8.58262e-05
2.59471e-07
8.58528e-05
3.43671e-07
8.58839e-05
4.11479e-07
8.59174e-05
4.63472e-07
8.59521e-05
5.01506e-07
8.59872e-05
5.28242e-07
8.60224e-05
5.45662e-07
8.60573e-05
5.55392e-07
8.60918e-05
5.58862e-07
8.61258e-05
5.57264e-07
8.61591e-05
5.5158e-07
8.61918e-05
5.42634e-07
8.62238e-05
5.3112e-07
8.62552e-05
5.17617e-07
8.62859e-05
5.02606e-07
8.6316e-05
4.86487e-07
8.63456e-05
4.69591e-07
8.63747e-05
4.5219e-07
8.64034e-05
4.34509e-07
8.64318e-05
4.16728e-07
8.64599e-05
3.98996e-07
8.64879e-05
3.81426e-07
8.6516e-05
3.64099e-07
8.65444e-05
3.47052e-07
8.65731e-05
3.30272e-07
8.66026e-05
3.13657e-07
8.66331e-05
2.97009e-07
8.66648e-05
2.79952e-07
8.66979e-05
2.62005e-07
8.67321e-05
2.4243e-07
2.20718e-07
8.67668e-05
8.825e-05
4.59267e-08
8.826e-05
1.46443e-07
8.82792e-05
2.40319e-07
8.83044e-05
3.18424e-07
8.83341e-05
3.81819e-07
8.83664e-05
4.31125e-07
8.84002e-05
4.6771e-07
8.84347e-05
4.9371e-07
8.84695e-05
5.10898e-07
8.85042e-05
5.20743e-07
8.85385e-05
5.24553e-07
8.85723e-05
5.2344e-07
8.86055e-05
5.18331e-07
8.86382e-05
5.10009e-07
8.86701e-05
4.99137e-07
8.87015e-05
4.86269e-07
8.87322e-05
4.71868e-07
8.87624e-05
4.56319e-07
8.87921e-05
4.3994e-07
8.88213e-05
4.22993e-07
8.88501e-05
4.05691e-07
8.88786e-05
3.88203e-07
8.89069e-05
3.70664e-07
8.89352e-05
3.53171e-07
8.89635e-05
3.35783e-07
8.8992e-05
3.18516e-07
8.9021e-05
3.01331e-07
8.90505e-05
2.84119e-07
8.90808e-05
2.66688e-07
8.9112e-05
2.48735e-07
8.91442e-05
2.29887e-07
8.91769e-05
2.09673e-07
1.87795e-07
8.92098e-05
9.07727e-05
4.45003e-08
9.07827e-05
1.36511e-07
9.08009e-05
2.22068e-07
9.08251e-05
2.94283e-07
9.08535e-05
3.53342e-07
9.08848e-05
3.99816e-07
9.09178e-05
4.34743e-07
9.09517e-05
4.59824e-07
9.0986e-05
4.76606e-07
9.10203e-05
4.86414e-07
9.10544e-05
4.90438e-07
9.10882e-05
4.89706e-07
9.11214e-05
4.85089e-07
9.11541e-05
4.77326e-07
9.11862e-05
4.67043e-07
9.12177e-05
4.54768e-07
9.12486e-05
4.40944e-07
9.1279e-05
4.25938e-07
9.13089e-05
4.10054e-07
9.13383e-05
3.93541e-07
9.13674e-05
3.76602e-07
9.13962e-05
3.59395e-07
9.14249e-05
3.42043e-07
9.14534e-05
3.24627e-07
9.1482e-05
3.07196e-07
9.15107e-05
2.8975e-07
9.15398e-05
2.72245e-07
9.15694e-05
2.54576e-07
9.15995e-05
2.36578e-07
9.16302e-05
2.1802e-07
9.16615e-05
1.98634e-07
9.1693e-05
1.78127e-07
1.56353e-07
9.17244e-05
9.33669e-05
4.22412e-08
9.33768e-05
1.26632e-07
9.33942e-05
2.04638e-07
9.34173e-05
2.71207e-07
9.34446e-05
3.26035e-07
9.34748e-05
3.6958e-07
9.35069e-05
4.02658e-07
9.35401e-05
4.26625e-07
9.35739e-05
4.42823e-07
9.36079e-05
4.52436e-07
9.36418e-05
4.56539e-07
9.36754e-05
4.56076e-07
9.37086e-05
4.51856e-07
9.37414e-05
4.44572e-07
9.37736e-05
4.34814e-07
9.38053e-05
4.2308e-07
9.38365e-05
4.09789e-07
9.38671e-05
3.95291e-07
9.38973e-05
3.79876e-07
9.39271e-05
3.63778e-07
9.39565e-05
3.4719e-07
9.39856e-05
3.30259e-07
9.40146e-05
3.13097e-07
9.40434e-05
2.95777e-07
9.40723e-05
2.78338e-07
9.41012e-05
2.60776e-07
9.41304e-05
2.4305e-07
9.41599e-05
2.2507e-07
9.41898e-05
2.06706e-07
9.422e-05
1.87792e-07
9.42505e-05
1.68147e-07
9.42811e-05
1.47599e-07
1.26099e-07
9.43113e-05
9.60348e-05
3.95311e-08
9.60445e-05
1.16891e-07
9.60612e-05
1.87974e-07
9.60833e-05
2.49123e-07
9.61095e-05
2.99805e-07
9.61387e-05
3.40359e-07
9.617e-05
3.71439e-07
9.62024e-05
3.94133e-07
9.62357e-05
4.0959e-07
9.62693e-05
4.18861e-07
9.63029e-05
4.22911e-07
9.63364e-05
4.22602e-07
9.63695e-05
4.1868e-07
9.64023e-05
4.11791e-07
9.64346e-05
4.02486e-07
9.64665e-05
3.91233e-07
9.64978e-05
3.78427e-07
9.65287e-05
3.644e-07
9.65592e-05
3.49423e-07
9.65893e-05
3.33721e-07
9.6619e-05
3.17472e-07
9.66484e-05
3.00816e-07
9.66777e-05
2.83855e-07
9.67068e-05
2.66657e-07
9.67359e-05
2.49256e-07
9.6765e-05
2.3165e-07
9.67942e-05
2.13807e-07
9.68236e-05
1.95657e-07
9.68532e-05
1.77107e-07
9.6883e-05
1.58042e-07
9.69128e-05
1.38353e-07
9.69424e-05
1.17947e-07
9.68353e-08
9.69717e-05
9.87787e-05
3.65975e-08
9.87882e-05
1.07342e-07
9.88042e-05
1.7201e-07
9.88253e-05
2.27956e-07
9.88506e-05
2.74582e-07
9.88788e-05
3.12113e-07
9.89092e-05
3.4108e-07
9.89409e-05
3.62361e-07
9.89736e-05
3.76934e-07
9.90067e-05
3.85725e-07
9.904e-05
3.89598e-07
9.90733e-05
3.89331e-07
9.91064e-05
3.85611e-07
9.91391e-05
3.79032e-07
9.91715e-05
3.70108e-07
9.92035e-05
3.59277e-07
9.9235e-05
3.46908e-07
9.92661e-05
3.33312e-07
9.92968e-05
3.18745e-07
9.93271e-05
3.03419e-07
9.9357e-05
2.87502e-07
9.93867e-05
2.71124e-07
9.94162e-05
2.54381e-07
9.94455e-05
2.37337e-07
9.94747e-05
2.20026e-07
9.95039e-05
2.02452e-07
9.95332e-05
1.84593e-07
9.95624e-05
1.66404e-07
9.95917e-05
1.47821e-07
9.9621e-05
1.28775e-07
9.96501e-05
1.09207e-07
9.9679e-05
8.90777e-08
6.8433e-08
9.97074e-05
0.000101601
3.35802e-08
0.00010161
9.80249e-08
0.000101625
1.5669e-07
0.000101646
2.07639e-07
0.00010167
2.50293e-07
0.000101697
2.84788e-07
0.000101727
3.11553e-07
0.000101758
3.31303e-07
0.00010179
3.44867e-07
0.000101823
3.53054e-07
0.000101856
3.56633e-07
0.000101889
3.56304e-07
0.000101922
3.52693e-07
0.000101954
3.46344e-07
0.000101987
3.37733e-07
0.000102019
3.27266e-07
0.00010205
3.15286e-07
0.000102081
3.02086e-07
0.000102112
2.87904e-07
0.000102143
2.7294e-07
0.000102173
2.5735e-07
0.000102203
2.41257e-07
0.000102232
2.24754e-07
0.000102262
2.07902e-07
0.000102291
1.90737e-07
0.00010232
1.73271e-07
0.000102349
1.55494e-07
0.000102378
1.37381e-07
0.000102407
1.18897e-07
0.000102436
1.00008e-07
0.000102465
8.06904e-08
0.000102493
6.09385e-08
4.08184e-08
0.00010252
0.000104503
3.05608e-08
0.000104512
8.89656e-08
0.000104527
1.41964e-07
0.000104547
1.88106e-07
0.00010457
2.26871e-07
0.000104597
2.58328e-07
0.000104625
2.82825e-07
0.000104656
3.00946e-07
0.000104687
3.13389e-07
0.000104719
3.20862e-07
0.000104752
3.2404e-07
0.000104785
3.23552e-07
0.000104817
3.19961e-07
0.00010485
3.13768e-07
0.000104882
3.05405e-07
0.000104914
2.95248e-07
0.000104946
2.83617e-07
0.000104977
2.7078e-07
0.000105008
2.56963e-07
0.000105039
2.42349e-07
0.000105069
2.27087e-07
0.000105099
2.11295e-07
0.000105129
1.95058e-07
0.000105158
1.78439e-07
0.000105188
1.61478e-07
0.000105217
1.44193e-07
0.000105246
1.26588e-07
0.000105274
1.08656e-07
0.000105303
9.03853e-08
0.000105331
7.17658e-08
0.000105359
5.27999e-08
0.000105386
3.35042e-08
1.39539e-08
0.000105413
0.000107489
2.75853e-08
0.000107498
8.01765e-08
0.000107512
1.27785e-07
0.000107531
1.69292e-07
0.000107553
2.0425e-07
0.000107579
2.32679e-07
0.000107607
2.54858e-07
0.000107637
2.71267e-07
0.000107668
2.82494e-07
0.000107699
2.89151e-07
0.000107731
2.91832e-07
0.000107764
2.91095e-07
0.000107796
2.87446e-07
0.000107829
2.81338e-07
0.000107861
2.73165e-07
0.000107893
2.6327e-07
0.000107925
2.51949e-07
0.000107956
2.39449e-07
0.000107987
2.2598e-07
0.000108018
2.11712e-07
0.000108048
1.96785e-07
0.000108078
1.8131e-07
0.000108108
1.65371e-07
0.000108137
1.4903e-07
0.000108166
1.3233e-07
0.000108195
1.15299e-07
0.000108224
9.79499e-08
0.000108252
8.02922e-08
0.00010828
6.23309e-08
0.000108308
4.40753e-08
0.000108335
2.55446e-08
0.000108362
6.76884e-09
-1.21737e-08
0.000108388
0.00011056
2.46775e-08
0.000110568
7.16594e-08
0.000110582
1.14111e-07
0.0001106
1.5114e-07
0.000110622
1.82368e-07
0.000110647
2.07784e-07
0.000110674
2.27609e-07
0.000110703
2.42238e-07
0.000110734
2.52167e-07
0.000110765
2.5792e-07
0.000110797
2.60017e-07
0.000110829
2.5895e-07
0.000110861
2.5517e-07
0.000110893
2.49083e-07
0.000110925
2.41046e-07
0.000110957
2.31372e-07
0.000110989
2.20329e-07
0.00011102
2.08145e-07
0.000111051
1.95012e-07
0.000111082
1.8109e-07
0.000111112
1.66509e-07
0.000111142
1.51375e-07
0.000111172
1.35767e-07
0.000111201
1.1975e-07
0.00011123
1.0337e-07
0.000111258
8.66603e-08
0.000111287
6.96454e-08
0.000111315
5.2345e-08
0.000111342
3.47778e-08
0.000111369
1.69662e-08
0.000111396
-1.05928e-09
0.000111422
-1.92612e-08
-3.75614e-08
0.000111447
0.000113718
2.18482e-08
0.000113727
6.34084e-08
0.00011374
1.009e-07
0.000113757
1.33593e-07
0.000113779
1.61164e-07
0.000113803
1.83586e-07
0.000113829
2.01032e-07
0.000113858
2.13827e-07
0.000113887
2.22386e-07
0.000113918
2.27159e-07
0.00011395
2.28594e-07
0.000113982
2.27125e-07
0.000114014
2.23148e-07
0.000114046
2.17026e-07
0.000114078
2.09079e-07
0.000114109
1.99589e-07
0.000114141
1.88797e-07
0.000114172
1.76912e-07
0.000114203
1.64111e-07
0.000114234
1.5054e-07
0.000114264
1.36321e-07
0.000114294
1.21553e-07
0.000114323
1.06315e-07
0.000114352
9.06691e-08
0.000114381
7.46656e-08
0.000114409
5.83431e-08
0.000114437
4.17337e-08
0.000114465
2.48656e-08
0.000114492
7.76723e-09
0.000114518
-9.5304e-09
0.000114544
-2.699e-08
0.000114569
-4.45702e-08
-6.21951e-08
0.000114594
0.000116967
1.91003e-08
0.000116975
5.5412e-08
0.000116988
8.8116e-08
0.000117005
1.16596e-07
0.000117025
1.40581e-07
0.000117049
1.6003e-07
0.000117075
1.75079e-07
0.000117103
1.85995e-07
0.000117132
1.93125e-07
0.000117162
1.9685e-07
0.000117193
1.97558e-07
0.000117225
1.95622e-07
0.000117257
1.91392e-07
0.000117289
1.85186e-07
0.00011732
1.77289e-07
0.000117352
1.67951e-07
0.000117383
1.57391e-07
0.000117414
1.45795e-07
0.000117445
1.33325e-07
0.000117476
1.20115e-07
0.000117506
1.06278e-07
0.000117535
9.19055e-08
0.000117565
7.70753e-08
0.000117593
6.18492e-08
0.000117622
4.62784e-08
0.00011765
3.04057e-08
0.000117677
1.42685e-08
0.000117704
-2.09872e-09
0.000117731
-1.86613e-08
0.000117756
-3.53827e-08
0.000117782
-5.2222e-08
0.000117806
-6.91363e-08
-8.60529e-08
0.00011783
0.000120309
1.64318e-08
0.000120316
4.76548e-08
0.000120329
7.57204e-08
0.000120345
1.001e-07
0.000120365
1.2056e-07
0.000120388
1.37058e-07
0.000120414
1.49698e-07
0.000120441
1.587e-07
0.00012047
1.64351e-07
0.0001205
1.66972e-07
0.00012053
1.66893e-07
0.000120562
1.64437e-07
0.000120593
1.59905e-07
0.000120625
1.53575e-07
0.000120656
1.45695e-07
0.000120688
1.36486e-07
0.000120719
1.26143e-07
0.00012075
1.14832e-07
0.000120781
1.02698e-07
0.000120811
8.98627e-08
0.000120841
7.64303e-08
0.00012087
6.24871e-08
0.000120899
4.81058e-08
0.000120927
3.33476e-08
0.000120956
1.82643e-08
0.000120983
2.90112e-09
0.00012101
-1.27013e-08
0.000121036
-2.85043e-08
0.000121062
-4.44698e-08
0.000121087
-6.05579e-08
0.000121112
-7.67263e-08
0.000121136
-9.29324e-08
-1.09107e-07
0.000121159
0.000123746
1.38388e-08
0.000123753
4.01194e-08
0.000123765
6.3678e-08
0.000123781
8.40535e-08
0.000123801
1.01047e-07
0.000123823
1.14614e-07
0.000123848
1.24837e-07
0.000123875
1.31895e-07
0.000123903
1.36026e-07
0.000123933
1.37494e-07
0.000123963
1.3658e-07
0.000123994
1.33558e-07
0.000124025
1.28684e-07
0.000124057
1.22195e-07
0.000124088
1.14308e-07
0.000124119
1.05212e-07
0.00012415
9.50787e-08
0.000124181
8.40539e-08
0.000124212
7.22661e-08
0.000124242
5.98249e-08
0.000124271
4.68251e-08
0.0001243
3.33461e-08
0.000124329
1.94564e-08
0.000124357
5.21496e-09
0.000124385
-9.3268e-09
0.000124412
-2.41229e-08
0.000124438
-3.9131e-08
0.000124464
-5.43105e-08
0.000124489
-6.96213e-08
0.000124514
-8.50228e-08
0.000124537
-1.00473e-07
0.00012456
-1.15929e-07
-1.31328e-07
0.000124583
0.000127281
1.13154e-08
0.000127288
3.27865e-08
0.0001273
5.19525e-08
0.000127316
6.84074e-08
0.000127335
8.19815e-08
0.000127357
9.26356e-08
0.000127381
1.00435e-07
0.000127408
1.05525e-07
0.000127435
1.08102e-07
0.000127465
1.08378e-07
0.000127495
1.0659e-07
0.000127525
1.02966e-07
0.000127556
9.77183e-08
0.000127587
9.10463e-08
0.000127618
8.31346e-08
0.00012765
7.4144e-08
0.00012768
6.42192e-08
0.000127711
5.34878e-08
0.000127741
4.2062e-08
0.000127771
3.00385e-08
0.0001278
1.7503e-08
0.000127829
4.52599e-09
0.000127857
-8.82827e-09
0.000127885
-2.25037e-08
0.000127912
-3.64506e-08
0.000127939
-5.06236e-08
0.000127965
-6.49802e-08
0.00012799
-7.94794e-08
0.000128014
-9.40811e-08
0.000128038
-1.08745e-07
0.000128061
-1.23429e-07
0.000128083
-1.38095e-07
-1.52682e-07
0.000128104
0.000130917
8.85698e-09
0.000130924
2.56404e-08
0.000130936
4.05148e-08
0.000130951
5.31195e-08
0.00013097
6.3313e-08
0.000130991
7.10652e-08
0.000131015
7.64317e-08
0.000131041
7.95315e-08
0.000131069
8.05251e-08
0.000131098
7.95734e-08
0.000131128
7.68783e-08
0.000131158
7.26247e-08
0.000131189
6.69821e-08
0.00013122
6.01109e-08
0.000131251
5.21677e-08
0.000131281
4.32813e-08
0.000131312
3.35727e-08
0.000131342
2.31496e-08
0.000131372
1.21081e-08
0.000131402
5.28484e-10
0.000131431
-1.15059e-08
0.000131459
-2.39397e-08
0.000131487
-3.67116e-08
0.000131514
-4.97704e-08
0.000131541
-6.30691e-08
0.000131567
-7.65637e-08
0.000131592
-9.0213e-08
0.000131617
-1.03977e-07
0.00013164
-1.17817e-07
0.000131663
-1.31693e-07
0.000131686
-1.45566e-07
0.000131707
-1.594e-07
-1.73138e-07
0.000131727
0.000134658
6.45317e-09
0.000134665
1.8655e-08
0.000134676
2.932e-08
0.000134691
3.81275e-08
0.000134709
4.4967e-08
0.00013473
4.98238e-08
0.000134754
5.27492e-08
0.00013478
5.3843e-08
0.000134807
5.32387e-08
0.000134835
5.10331e-08
0.000134865
4.7409e-08
0.000134895
4.25065e-08
0.000134926
3.64537e-08
0.000134956
2.93757e-08
0.000134987
2.14047e-08
0.000135018
1.26266e-08
0.000135048
3.14879e-09
0.000135078
-6.94784e-09
0.000135108
-1.7579e-08
0.000135137
-2.86759e-08
0.000135166
-4.01747e-08
0.000135194
-5.20213e-08
0.000135221
-6.41635e-08
0.000135248
-7.65546e-08
0.000135274
-8.91512e-08
0.0001353
-1.01913e-07
0.000135324
-1.148e-07
0.000135348
-1.27774e-07
0.000135371
-1.408e-07
0.000135393
-1.53839e-07
0.000135414
-1.66855e-07
0.000135435
-1.79813e-07
-1.92662e-07
0.000135454
0.000138505
4.11716e-09
0.000138511
1.18468e-08
0.000138522
1.83793e-08
0.000138537
2.34255e-08
0.000138555
2.6914e-08
0.000138576
2.88573e-08
0.000138599
2.93141e-08
0.000138625
2.83748e-08
0.000138652
2.61403e-08
0.00013868
2.26366e-08
0.00013871
1.80811e-08
0.00013874
1.25296e-08
0.00013877
6.06871e-09
0.000138801
-1.22952e-09
0.000138831
-9.19966e-09
0.000138862
-1.78505e-08
0.000138892
-2.70757e-08
0.000138922
-3.68125e-08
0.000138951
-4.69971e-08
0.00013898
-5.7574e-08
0.000139009
-6.84912e-08
0.000139036
-7.97019e-08
0.000139063
-9.11625e-08
0.000139089
-1.02832e-07
0.000139115
-1.14671e-07
0.00013914
-1.26644e-07
0.000139164
-1.38713e-07
0.000139187
-1.50845e-07
0.000139209
-1.63004e-07
0.00013923
-1.75157e-07
0.000139251
-1.87269e-07
0.00013927
-1.9931e-07
-2.11233e-07
0.000139289
0.000142462
1.78435e-09
0.000142468
5.11989e-09
0.000142479
7.57128e-09
0.000142494
8.88422e-09
0.000142512
9.0325e-09
0.000142532
8.05952e-09
0.000142556
6.031e-09
0.000142581
3.05877e-09
0.000142608
-7.1619e-10
0.000142636
-5.61036e-09
0.000142665
-1.11144e-08
0.000142695
-1.73335e-08
0.000142725
-2.41982e-08
0.000142756
-3.16612e-08
0.000142786
-3.96582e-08
0.000142817
-4.81576e-08
0.000142847
-5.71025e-08
0.000142876
-6.64466e-08
0.000142905
-7.61463e-08
0.000142934
-8.61598e-08
0.000142962
-9.64477e-08
0.000142989
-1.06973e-07
0.000143016
-1.17699e-07
0.000143041
-1.28592e-07
0.000143066
-1.39619e-07
0.000143091
-1.50746e-07
0.000143114
-1.61942e-07
0.000143136
-1.73176e-07
0.000143158
-1.84416e-07
0.000143178
-1.95631e-07
0.000143198
-2.06792e-07
0.000143216
-2.17868e-07
-2.28819e-07
0.000143234
0.000146531
-3.40523e-10
0.000146538
-1.2637e-09
0.000146548
-2.86815e-09
0.000146563
-5.36298e-09
0.00014658
-8.66844e-09
0.000146601
-1.26645e-08
0.000146624
-1.72503e-08
0.00014665
-2.23486e-08
0.000146677
-2.7911e-08
0.000146705
-3.39741e-08
0.000146734
-4.04145e-08
0.000146764
-4.72592e-08
0.000146795
-5.44972e-08
0.000146825
-6.21118e-08
0.000146856
-7.00773e-08
0.000146886
-7.8378e-08
0.000146916
-8.69912e-08
0.000146945
-9.58911e-08
0.000146974
-1.05052e-07
0.000147002
-1.14446e-07
0.00014703
-1.24047e-07
0.000147057
-1.33828e-07
0.000147083
-1.43761e-07
0.000147108
-1.53818e-07
0.000147132
-1.63972e-07
0.000147156
-1.74196e-07
0.000147178
-1.84462e-07
0.0001472
-1.94743e-07
0.000147221
-2.05011e-07
0.00014724
-2.15239e-07
0.000147259
-2.254e-07
0.000147276
-2.3547e-07
-2.4541e-07
0.000147293
0.000150718
-2.83059e-09
0.000150725
-7.91083e-09
0.000150735
-1.34346e-08
0.00015075
-1.95982e-08
0.000150767
-2.62613e-08
0.000150788
-3.32404e-08
0.000150811
-4.03917e-08
0.000150836
-4.76247e-08
0.000150863
-5.48954e-08
0.000150891
-6.22437e-08
0.000150921
-6.96538e-08
0.000150951
-7.71502e-08
0.000150981
-8.47647e-08
0.000151011
-9.252e-08
0.000151042
-1.0043e-07
0.000151072
-1.08507e-07
0.000151102
-1.16755e-07
0.000151131
-1.25169e-07
0.000151159
-1.33744e-07
0.000151187
-1.42468e-07
0.000151215
-1.51328e-07
0.000151241
-1.60307e-07
0.000151267
-1.69387e-07
0.000151292
-1.78548e-07
0.000151315
-1.87769e-07
0.000151338
-1.97029e-07
0.00015136
-2.06305e-07
0.000151381
-2.15574e-07
0.000151401
-2.24813e-07
0.000151419
-2.33999e-07
0.000151437
-2.43107e-07
0.000151454
-2.52117e-07
-2.60994e-07
0.000151469
0.000155023
-4.09429e-09
0.000155028
-1.32163e-08
0.000155038
-2.30629e-08
0.000155052
-3.35617e-08
0.00015507
-4.41703e-08
0.000155091
-5.45191e-08
0.000155115
-6.44235e-08
0.000155141
-7.38316e-08
0.000155169
-8.27722e-08
0.000155198
-9.1328e-08
0.000155228
-9.9569e-08
0.000155259
-1.07578e-07
0.000155289
-1.15436e-07
0.00015532
-1.2321e-07
0.00015535
-1.30951e-07
0.000155381
-1.38699e-07
0.00015541
-1.46485e-07
0.000155439
-1.54325e-07
0.000155468
-1.62231e-07
0.000155496
-1.70207e-07
0.000155523
-1.7825e-07
0.000155549
-1.86356e-07
0.000155574
-1.94514e-07
0.000155598
-2.02713e-07
0.000155621
-2.10939e-07
0.000155643
-2.19174e-07
0.000155664
-2.27401e-07
0.000155684
-2.35603e-07
0.000155703
-2.4376e-07
0.000155721
-2.51854e-07
0.000155738
-2.59864e-07
0.000155754
-2.67773e-07
-2.75551e-07
0.000155768
0.000159455
-8.01551e-09
0.000159462
-2.03572e-08
0.000159472
-3.34133e-08
0.000159486
-4.71643e-08
0.000159503
-6.11281e-08
0.000159523
-7.47006e-08
0.000159546
-8.74672e-08
0.000159571
-9.92641e-08
0.000159599
-1.101e-07
0.000159627
-1.20076e-07
0.000159657
-1.2932e-07
0.000159687
-1.37971e-07
0.000159718
-1.46159e-07
0.000159749
-1.54e-07
0.00015978
-1.61588e-07
0.00015981
-1.69001e-07
0.00015984
-1.76296e-07
0.000159869
-1.8352e-07
0.000159897
-1.90704e-07
0.000159925
-1.97871e-07
0.000159952
-2.05032e-07
0.000159978
-2.12194e-07
0.000160003
-2.19359e-07
0.000160026
-2.26523e-07
0.000160049
-2.33679e-07
0.000160071
-2.40817e-07
0.000160091
-2.47926e-07
0.000160111
-2.54992e-07
0.000160129
-2.62001e-07
0.000160146
-2.68937e-07
0.000160162
-2.75785e-07
0.000160177
-2.82529e-07
-2.89144e-07
0.00016019
0.000164003
-5.3884e-09
0.000164005
-2.22066e-08
0.000164014
-4.16958e-08
0.000164028
-6.1874e-08
0.000164048
-8.10799e-08
0.000164072
-9.85573e-08
0.000164099
-1.14136e-07
0.000164127
-1.27923e-07
0.000164157
-1.40127e-07
0.000164188
-1.50986e-07
0.00016422
-1.60733e-07
0.000164251
-1.69584e-07
0.000164283
-1.77731e-07
0.000164314
-1.85331e-07
0.000164345
-1.92515e-07
0.000164376
-1.99386e-07
0.000164405
-2.06026e-07
0.000164434
-2.12496e-07
0.000164462
-2.18844e-07
0.00016449
-2.25104e-07
0.000164516
-2.31299e-07
0.000164541
-2.37445e-07
0.000164565
-2.43551e-07
0.000164589
-2.49619e-07
0.000164611
-2.5565e-07
0.000164631
-2.61639e-07
0.000164651
-2.6758e-07
0.000164669
-2.73464e-07
0.000164687
-2.7928e-07
0.000164703
-2.85019e-07
0.000164718
-2.90667e-07
0.000164731
-2.96215e-07
-3.0164e-07
0.000164744
0.000168701
-1.48668e-08
0.000168709
-3.03345e-08
0.000168717
-4.95364e-08
0.000168727
-7.16348e-08
0.000168741
-9.48896e-08
0.000168759
-1.16962e-07
0.000168782
-1.3664e-07
0.000168807
-1.53709e-07
0.000168836
-1.68389e-07
0.000168866
-1.8101e-07
0.000168897
-1.91918e-07
0.000168929
-2.01434e-07
0.000168961
-2.09844e-07
0.000168993
-2.17386e-07
0.000169025
-2.24254e-07
0.000169056
-2.30603e-07
0.000169086
-2.36557e-07
0.000169116
-2.42211e-07
0.000169145
-2.47636e-07
0.000169173
-2.52889e-07
0.000169199
-2.58009e-07
0.000169225
-2.63026e-07
0.000169249
-2.67959e-07
0.000169273
-2.72821e-07
0.000169295
-2.77618e-07
0.000169315
-2.82354e-07
0.000169335
-2.87027e-07
0.000169353
-2.91634e-07
0.00016937
-2.96169e-07
0.000169385
-3.00625e-07
0.0001694
-3.04993e-07
0.000169413
-3.09265e-07
-3.13426e-07
0.000169425
0.000173491
5.28135e-09
0.000173485
-2.39887e-08
0.000173495
-5.94565e-08
0.000173516
-9.3285e-08
0.000173545
-1.23102e-07
0.000173576
-1.48283e-07
0.000173609
-1.69466e-07
0.000173642
-1.87232e-07
0.000173676
-2.02139e-07
0.00017371
-2.14684e-07
0.000173743
-2.25311e-07
0.000173776
-2.34405e-07
0.000173808
-2.42281e-07
0.00017384
-2.49194e-07
0.000173871
-2.55348e-07
0.000173902
-2.60907e-07
0.000173931
-2.66e-07
0.00017396
-2.70729e-07
0.000173987
-2.75172e-07
0.000174014
-2.7939e-07
0.000174039
-2.83428e-07
0.000174063
-2.87322e-07
0.000174087
-2.91096e-07
0.000174109
-2.94769e-07
0.000174129
-2.98352e-07
0.000174149
-3.01852e-07
0.000174167
-3.05274e-07
0.000174184
-3.08618e-07
0.0001742
-3.11882e-07
0.000174214
-3.15063e-07
0.000174227
-3.18156e-07
0.000174239
-3.21157e-07
-3.24051e-07
0.00017425
0.000178498
-2.41992e-08
0.000178501
-2.66179e-08
0.00017849
-4.85372e-08
0.000178481
-8.45468e-08
0.000178484
-1.25612e-07
0.000178497
-1.61951e-07
0.000178519
-1.91528e-07
0.000178547
-2.15009e-07
0.000178579
-2.33726e-07
0.000178613
-2.48676e-07
0.000178648
-2.6066e-07
0.000178684
-2.70342e-07
0.00017872
-2.78247e-07
0.000178755
-2.84786e-07
0.00017879
-2.90276e-07
0.000178824
-2.94961e-07
0.000178857
-2.99027e-07
0.000178889
-3.02617e-07
0.00017892
-3.05839e-07
0.000178949
-3.08777e-07
0.000178977
-3.11491e-07
0.000179004
-3.14028e-07
0.000179029
-3.16422e-07
0.000179053
-3.18699e-07
0.000179076
-3.20875e-07
0.000179097
-3.22963e-07
0.000179117
-3.24972e-07
0.000179135
-3.26904e-07
0.000179152
-3.28764e-07
0.000179167
-3.3055e-07
0.000179182
-3.32263e-07
0.000179194
-3.339e-07
-3.35453e-07
0.000179206
0.000183487
5.66262e-08
0.000183465
-4.64041e-09
0.000183501
-8.44662e-08
0.000183553
-1.36996e-07
0.000183604
-1.77074e-07
0.000183651
-2.0825e-07
0.000183692
-2.33032e-07
0.00018373
-2.53261e-07
0.000183766
-2.69659e-07
0.000183801
-2.82917e-07
0.000183834
-2.93691e-07
0.000183866
-3.02491e-07
0.000183897
-3.09711e-07
0.000183928
-3.15664e-07
0.000183959
-3.20604e-07
0.000183988
-3.24728e-07
0.000184017
-3.28194e-07
0.000184046
-3.31127e-07
0.000184074
-3.33626e-07
0.000184101
-3.35769e-07
0.000184127
-3.37618e-07
0.000184152
-3.39222e-07
0.000184176
-3.4062e-07
0.000184199
-3.41842e-07
0.000184221
-3.42912e-07
0.000184242
-3.43848e-07
0.000184262
-3.44665e-07
0.00018428
-3.45372e-07
0.000184298
-3.45977e-07
0.000184314
-3.46485e-07
0.000184328
-3.46898e-07
0.000184342
-3.47216e-07
-3.47438e-07
0.000184354
0.000188861
7.68075e-09
0.000188796
6.02641e-08
0.000188711
8.85629e-10
0.000188647
-7.34656e-08
0.000188629
-1.58779e-07
0.000188643
-2.22012e-07
0.000188675
-2.65559e-07
0.000188718
-2.96424e-07
0.000188767
-3.18822e-07
0.00018882
-3.35344e-07
0.000188874
-3.47632e-07
0.000188928
-3.56809e-07
0.000188982
-3.63673e-07
0.000189035
-3.68792e-07
0.000189087
-3.7258e-07
0.000189138
-3.75339e-07
0.000189187
-3.77294e-07
0.000189234
-3.78614e-07
0.00018928
-3.79427e-07
0.000189324
-3.79831e-07
0.000189367
-3.79904e-07