/*--------------------------------*- C++ -*----------------------------------*\
| =========                 |                                                 |
| \\      /  F ield         | OpenFOAM: The Open Source CFD Toolbox           |
|  \\    /   O peration     | Version:  2.1.1                                 |
|   \\  /    A nd           | Web:      www.OpenFOAM.org                      |
|    \\/     M anipulation  |                                                 |
\*---------------------------------------------------------------------------*/
FoamFile
{
    version     2.0;
    format      ascii;
    class       volVectorField;
    location    "0.165";
    object      U;
}
// * * * * * * * * * * * * * * * * * * * * * * * * * * * * * * * * * * * * * //

dimensions      [0 1 -1 0 0 0 0];

internalField   nonuniform List<vector> 
6820
(
(8.34337 -0.360076 0)
(8.4011 -0.247153 0)
(8.35609 -0.115293 0)
(8.24779 -0.0365585 0)
(8.11935 0.00600633 0)
(7.98592 0.0278673 0)
(7.85381 0.0386362 0)
(7.72641 0.0433352 0)
(7.60514 0.0446056 0)
(7.49055 0.0439043 0)
(7.38285 0.0420731 0)
(7.28208 0.0396164 0)
(7.18813 0.0368452 0)
(7.10077 0.0339553 0)
(7.01974 0.0310705 0)
(6.9447 0.0282681 0)
(6.87531 0.0255956 0)
(6.81121 0.0230799 0)
(6.75204 0.0207346 0)
(6.69744 0.0185642 0)
(6.64707 0.0165677 0)
(6.60059 0.0147411 0)
(6.55767 0.013079 0)
(6.51802 0.0115771 0)
(6.48132 0.0102342 0)
(6.44726 0.00905644 0)
(6.41551 0.00806241 0)
(6.38565 0.00730467 0)
(6.3572 0.00688747 0)
(6.3292 0.00708128 0)
(6.30014 0.00869625 0)
(6.26684 0.0125821 0)
(6.22031 0.0292841 0)
(8.32138 0.166251 0)
(8.28709 0.190003 0)
(8.28543 0.132157 0)
(8.3174 0.095857 0)
(8.36169 0.0750195 0)
(8.40175 0.0623561 0)
(8.43283 0.0548716 0)
(8.45491 0.0503465 0)
(8.46885 0.0474395 0)
(8.47564 0.0454371 0)
(8.47633 0.0439445 0)
(8.47186 0.0427236 0)
(8.46306 0.0416356 0)
(8.45065 0.0406033 0)
(8.43528 0.0395862 0)
(8.4175 0.0385654 0)
(8.39779 0.0375347 0)
(8.37657 0.0364952 0)
(8.3542 0.0354514 0)
(8.33097 0.0344098 0)
(8.30715 0.033378 0)
(8.28296 0.0323641 0)
(8.25856 0.0313777 0)
(8.23412 0.0304301 0)
(8.20976 0.0295379 0)
(8.18557 0.0287253 0)
(8.16166 0.0280352 0)
(8.13804 0.0275419 0)
(8.11497 0.0273853 0)
(8.0922 0.027892 0)
(8.07181 0.0295029 0)
(8.05137 0.0341963 0)
(8.05099 0.0421238 0)
(8.3225 -0.0608847 0)
(8.31397 -0.0832791 0)
(8.3305 -0.0540926 0)
(8.34431 -0.0202943 0)
(8.35318 0.00241671 0)
(8.3622 0.0165436 0)
(8.37192 0.0257831 0)
(8.38194 0.0320004 0)
(8.39178 0.0362191 0)
(8.40104 0.0390845 0)
(8.40949 0.0409911 0)
(8.41698 0.042183 0)
(8.42347 0.0428339 0)
(8.42893 0.043075 0)
(8.43338 0.0430056 0)
(8.43687 0.0427019 0)
(8.43945 0.0422231 0)
(8.44118 0.0416158 0)
(8.44212 0.0409167 0)
(8.44234 0.0401553 0)
(8.44192 0.0393553 0)
(8.44091 0.0385368 0)
(8.43937 0.037718 0)
(8.43736 0.0369165 0)
(8.43494 0.0361532 0)
(8.43213 0.0354532 0)
(8.42901 0.0348597 0)
(8.42559 0.0344177 0)
(8.42199 0.0342698 0)
(8.41826 0.0343963 0)
(8.41489 0.0354656 0)
(8.41188 0.0357796 0)
(8.41055 0.0390978 0)
(8.33365 0.0145654 0)
(8.32976 0.047705 0)
(8.32737 0.05398 0)
(8.32869 0.0465675 0)
(8.33457 0.0410708 0)
(8.34209 0.0385687 0)
(8.34958 0.0377593 0)
(8.35679 0.0377147 0)
(8.36377 0.0379336 0)
(8.37047 0.0381958 0)
(8.37689 0.0384025 0)
(8.38298 0.0385125 0)
(8.38874 0.0385161 0)
(8.39415 0.0384166 0)
(8.39919 0.0382221 0)
(8.40388 0.0379437 0)
(8.40822 0.0375935 0)
(8.41221 0.0371838 0)
(8.41587 0.0367266 0)
(8.41922 0.0362335 0)
(8.42228 0.0357154 0)
(8.42506 0.0351834 0)
(8.42759 0.0346493 0)
(8.42989 0.0341269 0)
(8.43197 0.0336337 0)
(8.43386 0.0331928 0)
(8.43559 0.0328403 0)
(8.43719 0.0326193 0)
(8.43876 0.0326132 0)
(8.44036 0.0328666 0)
(8.44243 0.0335524 0)
(8.44502 0.034403 0)
(8.44947 0.0357854 0)
(8.3302 -0.00530818 0)
(8.32721 -0.00750141 0)
(8.33136 -0.00244035 0)
(8.33603 0.00805017 0)
(8.3401 0.0172268 0)
(8.34426 0.0234452 0)
(8.34865 0.02763 0)
(8.35329 0.0305931 0)
(8.3581 0.0327357 0)
(8.36295 0.0342899 0)
(8.36777 0.0354009 0)
(8.3725 0.0361629 0)
(8.37711 0.0366425 0)
(8.38157 0.036891 0)
(8.38588 0.0369507 0)
(8.39002 0.036857 0)
(8.39399 0.0366401 0)
(8.39778 0.0363255 0)
(8.40142 0.0359346 0)
(8.40489 0.0354863 0)
(8.40822 0.0349966 0)
(8.4114 0.0344806 0)
(8.41445 0.0339525 0)
(8.41738 0.0334275 0)
(8.4202 0.032923 0)
(8.42294 0.0324592 0)
(8.42561 0.032065 0)
(8.42825 0.0317674 0)
(8.43095 0.0316185 0)
(8.43377 0.031604 0)
(8.43698 0.0318106 0)
(8.44067 0.0318274 0)
(8.4452 0.0318323 0)
(8.33238 0.00228997 0)
(8.33118 0.0133193 0)
(8.33279 0.020412 0)
(8.33548 0.0238087 0)
(8.33892 0.025966 0)
(8.34295 0.0277766 0)
(8.34716 0.0294549 0)
(8.35139 0.0309497 0)
(8.35562 0.0321803 0)
(8.35982 0.0331358 0)
(8.36397 0.0338382 0)
(8.36805 0.0343153 0)
(8.37205 0.0345958 0)
(8.37596 0.0347085 0)
(8.37977 0.03468 0)
(8.38347 0.0345342 0)
(8.38707 0.034292 0)
(8.39056 0.0339716 0)
(8.39395 0.033589 0)
(8.39724 0.0331583 0)
(8.40043 0.0326923 0)
(8.40354 0.0322029 0)
(8.40658 0.0317018 0)
(8.40954 0.0312013 0)
(8.41246 0.0307153 0)
(8.41533 0.0302592 0)
(8.4182 0.0298523 0)
(8.42109 0.02951 0)
(8.42407 0.0292537 0)
(8.42721 0.0290604 0)
(8.43067 0.0289226 0)
(8.43451 0.0286043 0)
(8.43886 0.0280521 0)
(8.33232 0.000878794 0)
(8.33151 0.00580152 0)
(8.3334 0.0107866 0)
(8.33643 0.0155934 0)
(8.33982 0.0199846 0)
(8.34345 0.0234996 0)
(8.34718 0.0261853 0)
(8.35093 0.0282366 0)
(8.35471 0.0297902 0)
(8.35847 0.0309483 0)
(8.36221 0.0317882 0)
(8.3659 0.0323655 0)
(8.36952 0.0327234 0)
(8.37307 0.032898 0)
(8.37655 0.0329196 0)
(8.37994 0.032814 0)
(8.38326 0.0326037 0)
(8.3865 0.0323076 0)
(8.38966 0.0319427 0)
(8.39276 0.0315233 0)
(8.39579 0.0310624 0)
(8.39876 0.0305718 0)
(8.40169 0.0300627 0)
(8.40457 0.029546 0)
(8.40743 0.0290331 0)
(8.41029 0.0285351 0)
(8.41316 0.0280636 0)
(8.41608 0.0276241 0)
(8.4191 0.0272191 0)
(8.42227 0.0268164 0)
(8.42569 0.0263777 0)
(8.4294 0.0257364 0)
(8.43339 0.0247985 0)
(8.33272 0.00171622 0)
(8.33255 0.00730834 0)
(8.33416 0.0126126 0)
(8.33673 0.0168866 0)
(8.33975 0.0203451 0)
(8.34311 0.023076 0)
(8.34665 0.0252428 0)
(8.35023 0.0269791 0)
(8.35382 0.0283446 0)
(8.35739 0.0293856 0)
(8.36092 0.0301482 0)
(8.3644 0.0306725 0)
(8.36781 0.0309934 0)
(8.37115 0.0311416 0)
(8.37442 0.0311443 0)
(8.37763 0.031025 0)
(8.38076 0.0308042 0)
(8.38383 0.0304996 0)
(8.38683 0.0301265 0)
(8.38978 0.0296984 0)
(8.39268 0.0292269 0)
(8.39554 0.0287226 0)
(8.39836 0.0281951 0)
(8.40116 0.0276533 0)
(8.40395 0.0271056 0)
(8.40675 0.0265588 0)
(8.40957 0.026018 0)
(8.41245 0.0254816 0)
(8.41543 0.0249407 0)
(8.41854 0.0243617 0)
(8.42184 0.0236976 0)
(8.42533 0.0228362 0)
(8.42899 0.0216958 0)
(8.33284 0.00179639 0)
(8.33293 0.0064841 0)
(8.33442 0.0110123 0)
(8.33682 0.0149153 0)
(8.33966 0.0182937 0)
(8.34284 0.0210992 0)
(8.34617 0.0233585 0)
(8.34957 0.0251551 0)
(8.353 0.0265547 0)
(8.35641 0.0276153 0)
(8.35978 0.0283905 0)
(8.36311 0.0289243 0)
(8.36638 0.0292535 0)
(8.36959 0.0294093 0)
(8.37273 0.0294186 0)
(8.37581 0.0293046 0)
(8.37882 0.0290871 0)
(8.38178 0.0287832 0)
(8.38467 0.0284079 0)
(8.38752 0.0279737 0)
(8.39033 0.0274917 0)
(8.3931 0.0269716 0)
(8.39584 0.0264216 0)
(8.39856 0.0258491 0)
(8.40129 0.0252597 0)
(8.40402 0.0246571 0)
(8.40679 0.0240416 0)
(8.40961 0.0234071 0)
(8.41251 0.0227394 0)
(8.41553 0.0220067 0)
(8.41867 0.0211651 0)
(8.42194 0.0201382 0)
(8.42531 0.0188654 0)
(8.33294 0.00183929 0)
(8.33322 0.00616445 0)
(8.33461 0.0103909 0)
(8.33681 0.0140712 0)
(8.33944 0.0172216 0)
(8.34239 0.019831 0)
(8.34554 0.02194 0)
(8.34878 0.023628 0)
(8.35207 0.0249552 0)
(8.35535 0.0259697 0)
(8.35861 0.0267156 0)
(8.36183 0.027231 0)
(8.365 0.0275487 0)
(8.36811 0.0276972 0)
(8.37116 0.0277015 0)
(8.37415 0.0275832 0)
(8.37708 0.0273612 0)
(8.37996 0.0270515 0)
(8.38278 0.026668 0)
(8.38556 0.0262226 0)
(8.38829 0.0257255 0)
(8.391 0.0251851 0)
(8.39368 0.0246086 0)
(8.39635 0.0240015 0)
(8.39902 0.0233674 0)
(8.4017 0.0227073 0)
(8.40441 0.0220187 0)
(8.40716 0.0212928 0)
(8.40999 0.0205139 0)
(8.41289 0.0196542 0)
(8.41588 0.0186772 0)
(8.41895 0.0175312 0)
(8.42206 0.0161762 0)
(8.33299 0.00180375 0)
(8.33337 0.00574096 0)
(8.33468 0.00956875 0)
(8.33669 0.0129519 0)
(8.33915 0.0158817 0)
(8.34191 0.0183504 0)
(8.34489 0.0203753 0)
(8.34797 0.0220089 0)
(8.35111 0.0232992 0)
(8.35427 0.0242885 0)
(8.35742 0.0250173 0)
(8.36053 0.0255214 0)
(8.36361 0.0258319 0)
(8.36664 0.025976 0)
(8.36961 0.0259773 0)
(8.37253 0.0258563 0)
(8.3754 0.0256307 0)
(8.37821 0.0253158 0)
(8.38097 0.0249245 0)
(8.3837 0.024468 0)
(8.38638 0.0239554 0)
(8.38904 0.0233944 0)
(8.39167 0.0227908 0)
(8.39429 0.0221487 0)
(8.39691 0.0214703 0)
(8.39954 0.0207547 0)
(8.40219 0.0199976 0)
(8.40488 0.0191896 0)
(8.40762 0.0183155 0)
(8.41041 0.0173524 0)
(8.41326 0.0162719 0)
(8.41614 0.0150391 0)
(8.41904 0.0136295 0)
(8.33301 0.001727 0)
(8.33346 0.00534029 0)
(8.33468 0.00884084 0)
(8.33654 0.0119729 0)
(8.33882 0.014701 0)
(8.34141 0.0170154 0)
(8.34422 0.0189264 0)
(8.34714 0.0204748 0)
(8.35014 0.0217024 0)
(8.35317 0.0226469 0)
(8.35621 0.0233441 0)
(8.35923 0.0238262 0)
(8.36221 0.0241213 0)
(8.36516 0.0242545 0)
(8.36806 0.0242475 0)
(8.37091 0.0241195 0)
(8.37372 0.0238868 0)
(8.37648 0.0235637 0)
(8.37919 0.0231621 0)
(8.38186 0.0226923 0)
(8.3845 0.0221625 0)
(8.38711 0.0215795 0)
(8.3897 0.020948 0)
(8.39228 0.020271 0)
(8.39485 0.0195495 0)
(8.39743 0.0187815 0)
(8.40003 0.0179621 0)
(8.40264 0.0170822 0)
(8.40529 0.0161284 0)
(8.40797 0.0150824 0)
(8.41069 0.0139232 0)
(8.41341 0.0126278 0)
(8.41613 0.0111822 0)
(8.33303 0.00162611 0)
(8.33349 0.00494 0)
(8.33464 0.00813168 0)
(8.33637 0.0110112 0)
(8.33849 0.0135344 0)
(8.34092 0.015691 0)
(8.34356 0.0174864 0)
(8.34633 0.0189494 0)
(8.3492 0.020114 0)
(8.3521 0.0210123 0)
(8.35502 0.0216755 0)
(8.35794 0.0221325 0)
(8.36083 0.022409 0)
(8.3637 0.0225281 0)
(8.36652 0.0225099 0)
(8.36931 0.0223721 0)
(8.37205 0.0221299 0)
(8.37475 0.0217966 0)
(8.37741 0.0213831 0)
(8.38004 0.0208986 0)
(8.38263 0.0203508 0)
(8.3852 0.0197453 0)
(8.38774 0.0190861 0)
(8.39027 0.0183754 0)
(8.39279 0.0176133 0)
(8.39532 0.0167975 0)
(8.39785 0.0159228 0)
(8.40039 0.0149813 0)
(8.40295 0.0139618 0)
(8.40553 0.0128503 0)
(8.40811 0.0116318 0)
(8.4107 0.0102914 0)
(8.41326 0.00882199 0)
(8.33304 0.00151267 0)
(8.3335 0.00454769 0)
(8.33458 0.0074562 0)
(8.33618 0.010097 0)
(8.33816 0.0124236 0)
(8.34043 0.0144231 0)
(8.34292 0.0160974 0)
(8.34556 0.0174672 0)
(8.34829 0.0185601 0)
(8.35107 0.0194037 0)
(8.35388 0.0200253 0)
(8.35669 0.0204506 0)
(8.35949 0.0207028 0)
(8.36227 0.0208028 0)
(8.36502 0.020769 0)
(8.36773 0.0206177 0)
(8.37041 0.020363 0)
(8.37305 0.0200167 0)
(8.37566 0.019589 0)
(8.37823 0.0190883 0)
(8.38077 0.0185213 0)
(8.38329 0.0178929 0)
(8.38578 0.0172065 0)
(8.38826 0.0164636 0)
(8.39073 0.0156638 0)
(8.39319 0.0148048 0)
(8.39565 0.013882 0)
(8.39812 0.0128886 0)
(8.40059 0.0118156 0)
(8.40306 0.010653 0)
(8.40553 0.00939017 0)
(8.40798 0.00801777 0)
(8.4104 0.00653324 0)
(8.33304 0.0013937 0)
(8.33349 0.00416419 0)
(8.33451 0.00680777 0)
(8.336 0.00921837 0)
(8.33785 0.0113515 0)
(8.33998 0.013193 0)
(8.34233 0.0147424 0)
(8.34482 0.0160143 0)
(8.34742 0.0170305 0)
(8.35008 0.0178145 0)
(8.35278 0.0183897 0)
(8.35549 0.0187787 0)
(8.3582 0.0190023 0)
(8.36089 0.0190793 0)
(8.36356 0.0190265 0)
(8.3662 0.0188587 0)
(8.36881 0.0185885 0)
(8.37139 0.0182271 0)
(8.37393 0.0177835 0)
(8.37645 0.0172654 0)
(8.37894 0.0166786 0)
(8.3814 0.0160274 0)
(8.38383 0.0153147 0)
(8.38626 0.0145416 0)
(8.38866 0.0137076 0)
(8.39106 0.0128106 0)
(8.39345 0.0118466 0)
(8.39583 0.0108101 0)
(8.39821 0.00969449 0)
(8.40058 0.00849247 0)
(8.40293 0.00719713 0)
(8.40526 0.00580276 0)
(8.40755 0.00430956 0)
(8.33304 0.00127336 0)
(8.33347 0.00379093 0)
(8.33443 0.00618517 0)
(8.33582 0.00837474 0)
(8.33755 0.0103193 0)
(8.33955 0.0120038 0)
(8.34176 0.0134259 0)
(8.34413 0.0145957 0)
(8.34661 0.0155303 0)
(8.34915 0.0162494 0)
(8.35174 0.016773 0)
(8.35435 0.0171207 0)
(8.35696 0.0173112 0)
(8.35957 0.0173612 0)
(8.36216 0.0172857 0)
(8.36473 0.0170982 0)
(8.36727 0.0168101 0)
(8.36978 0.0164314 0)
(8.37226 0.0159704 0)
(8.37471 0.0154338 0)
(8.37714 0.0148269 0)
(8.37954 0.0141534 0)
(8.38192 0.0134158 0)
(8.38428 0.012615 0)
(8.38662 0.0117505 0)
(8.38894 0.0108205 0)
(8.39125 0.00982188 0)
(8.39355 0.0087505 0)
(8.39584 0.00760151 0)
(8.3981 0.00636996 0)
(8.40034 0.00505152 0)
(8.40255 0.00364302 0)
(8.40472 0.00214626 0)
(8.33304 0.00115407 0)
(8.33345 0.00342856 0)
(8.33435 0.00558614 0)
(8.33565 0.00756278 0)
(8.33727 0.00932292 0)
(8.33915 0.0108513 0)
(8.34124 0.0121442 0)
(8.34349 0.0132084 0)
(8.34585 0.0140573 0)
(8.34828 0.014707 0)
(8.35076 0.0151745 0)
(8.35327 0.0154769 0)
(8.35579 0.0156303 0)
(8.35831 0.0156497 0)
(8.36082 0.0155484 0)
(8.36331 0.0153385 0)
(8.36578 0.0150303 0)
(8.36822 0.0146327 0)
(8.37064 0.0141531 0)
(8.37303 0.0135976 0)
(8.37539 0.0129707 0)
(8.37773 0.0122758 0)
(8.38004 0.0115151 0)
(8.38233 0.0106893 0)
(8.3846 0.00979821 0)
(8.38685 0.00884036 0)
(8.38908 0.00781347 0)
(8.39129 0.00671455 0)
(8.39348 0.00554029 0)
(8.39564 0.00428752 0)
(8.39777 0.00295379 0)
(8.39987 0.00153759 0)
(8.40192 4.16865e-05 0)
(8.33304 0.00103711 0)
(8.33343 0.00307734 0)
(8.33427 0.00500892 0)
(8.33549 0.00678008 0)
(8.33701 0.00835991 0)
(8.33878 0.00973347 0)
(8.34076 0.0108961 0)
(8.34289 0.0118522 0)
(8.34514 0.0126118 0)
(8.34746 0.0131882 0)
(8.34984 0.0135956 0)
(8.35226 0.0138487 0)
(8.35469 0.0139614 0)
(8.35712 0.0139469 0)
(8.35955 0.0138171 0)
(8.36197 0.0135824 0)
(8.36436 0.0132522 0)
(8.36673 0.0128343 0)
(8.36908 0.0123353 0)
(8.3714 0.0117606 0)
(8.3737 0.0111143 0)
(8.37597 0.0103993 0)
(8.37821 0.00961759 0)
(8.38043 0.00876993 0)
(8.38262 0.00785622 0)
(8.3848 0.00687555 0)
(8.38694 0.00582633 0)
(8.38906 0.00470658 0)
(8.39115 0.00351422 0)
(8.39322 0.00224742 0)
(8.39524 0.000905033 0)
(8.39723 -0.000513309 0)
(8.39917 -0.00200437 0)
(8.33303 0.000923135 0)
(8.3334 0.00273711 0)
(8.3342 0.00445177 0)
(8.33534 0.00602415 0)
(8.33677 0.00742753 0)
(8.33845 0.00864768 0)
(8.34032 0.0096794 0)
(8.34234 0.0105251 0)
(8.34448 0.0111925 0)
(8.3467 0.0116921 0)
(8.34899 0.0120359 0)
(8.35131 0.0122361 0)
(8.35365 0.012305 0)
(8.356 0.0122538 0)
(8.35835 0.0120928 0)
(8.36069 0.0118314 0)
(8.36301 0.0114776 0)
(8.36531 0.0110384 0)
(8.36759 0.0105196 0)
(8.36984 0.00992597 0)
(8.37206 0.00926109 0)
(8.37426 0.00852764 0)
(8.37643 0.00772733 0)
(8.37858 0.00686101 0)
(8.3807 0.00592881 0)
(8.38279 0.00493023 0)
(8.38485 0.00386433 0)
(8.38688 0.00272994 0)
(8.38888 0.00152593 0)
(8.39084 0.000251466 0)
(8.39276 -0.00109368 0)
(8.39464 -0.00250917 0)
(8.39647 -0.00399152 0)
(8.33303 0.000812372 0)
(8.33338 0.00240751 0)
(8.33413 0.00391307 0)
(8.33521 0.00529269 0)
(8.33655 0.00652329 0)
(8.33813 0.0075916 0)
(8.33991 0.00849213 0)
(8.34183 0.00922594 0)
(8.34387 0.00979869 0)
(8.346 0.0102187 0)
(8.34819 0.0104959 0)
(8.35042 0.0106405 0)
(8.35268 0.0106628 0)
(8.35495 0.0105724 0)
(8.35722 0.0103782 0)
(8.35948 0.0100884 0)
(8.36172 0.00970992 0)
(8.36395 0.00924883 0)
(8.36616 0.00871021 0)
(8.36834 0.00809819 0)
(8.37049 0.00741598 0)
(8.37262 0.00666594 0)
(8.37472 0.00584967 0)
(8.37679 0.00496807 0)
(8.37883 0.00402146 0)
(8.38083 0.00300973 0)
(8.38281 0.00193246 0)
(8.38475 0.000789143 0)
(8.38665 -0.000420651 0)
(8.38851 -0.00169704 0)
(8.39033 -0.00303963 0)
(8.39211 -0.00444761 0)
(8.39383 -0.00591744 0)
(8.33303 0.000704827 0)
(8.33336 0.00208797 0)
(8.33406 0.00339124 0)
(8.33508 0.00458341 0)
(8.33635 0.00564452 0)
(8.33785 0.00656242 0)
(8.33953 0.00733158 0)
(8.34136 0.00795207 0)
(8.34331 0.00842798 0)
(8.34535 0.00876581 0)
(8.34745 0.00897353 0)
(8.3496 0.00905968 0)
(8.35177 0.00903279 0)
(8.35396 0.00890102 0)
(8.35615 0.00867194 0)
(8.35834 0.0083524 0)
(8.36051 0.0079484 0)
(8.36266 0.00746514 0)
(8.3648 0.00690699 0)
(8.36691 0.00627751 0)
(8.36899 0.00557952 0)
(8.37104 0.00481512 0)
(8.37307 0.00398579 0)
(8.37506 0.00309246 0)
(8.37701 0.00213563 0)
(8.37894 0.00111549 0)
(8.38083 3.20289e-05 0)
(8.38267 -0.00111476 0)
(8.38448 -0.00232479 0)
(8.38625 -0.00359767 0)
(8.38797 -0.0049326 0)
(8.38964 -0.00632849 0)
(8.39127 -0.00778183 0)
(8.33303 0.00060037 0)
(8.33334 0.0017778 0)
(8.33401 0.00288485 0)
(8.33496 0.00389442 0)
(8.33617 0.00478928 0)
(8.33759 0.00555853 0)
(8.33919 0.00619682 0)
(8.34094 0.00670352 0)
(8.3428 0.00708148 0)
(8.34475 0.00733558 0)
(8.34677 0.00747216 0)
(8.34883 0.00749814 0)
(8.35093 0.00742047 0)
(8.35304 0.0072459 0)
(8.35515 0.00698075 0)
(8.35726 0.00663072 0)
(8.35937 0.00620085 0)
(8.36145 0.00569552 0)
(8.36351 0.00511844 0)
(8.36555 0.00447267 0)
(8.36756 0.00376063 0)
(8.36954 0.00298417 0)
(8.37148 0.00214463 0)
(8.37339 0.00124301 0)
(8.37527 0.000279919 0)
(8.37711 -0.000744222 0)
(8.37891 -0.0018291 0)
(8.38067 -0.00297438 0)
(8.38239 -0.00417958 0)
(8.38406 -0.005444 0)
(8.38568 -0.00676658 0)
(8.38726 -0.00814606 0)
(8.38878 -0.00957904 0)
(8.33303 0.000498797 0)
(8.33332 0.0014762 0)
(8.33395 0.00239212 0)
(8.33486 0.00322285 0)
(8.336 0.00395354 0)
(8.33735 0.00457461 0)
(8.33888 0.00508114 0)
(8.34055 0.00547218 0)
(8.34233 0.00574969 0)
(8.3442 0.00591724 0)
(8.34614 0.00597994 0)
(8.34813 0.00594333 0)
(8.35015 0.00581289 0)
(8.35218 0.00559396 0)
(8.35423 0.00529171 0)
(8.35627 0.00491072 0)
(8.35829 0.00445507 0)
(8.36031 0.00392834 0)
(8.3623 0.00333359 0)
(8.36426 0.00267329 0)
(8.3662 0.00194962 0)
(8.3681 0.00116412 0)
(8.36997 0.000317982 0)
(8.37181 -0.000587856 0)
(8.3736 -0.00155269 0)
(8.37536 -0.00257593 0)
(8.37707 -0.00365707 0)
(8.37874 -0.00479551 0)
(8.38037 -0.00599055 0)
(8.38195 -0.00724124 0)
(8.38347 -0.00854639 0)
(8.38495 -0.00990468 0)
(8.38638 -0.0113128 0)
(8.33303 0.000399901 0)
(8.33331 0.00118268 0)
(8.3339 0.00191266 0)
(8.33476 0.00256919 0)
(8.33585 0.00313968 0)
(8.33714 0.00361588 0)
(8.33859 0.00399334 0)
(8.34019 0.00427082 0)
(8.3419 0.00444952 0)
(8.3437 0.00453148 0)
(8.34557 0.00452066 0)
(8.34748 0.00442129 0)
(8.34943 0.00423764 0)
(8.3514 0.00397392 0)
(8.35337 0.00363425 0)
(8.35534 0.003222 0)
(8.3573 0.00274053 0)
(8.35924 0.00219267 0)
(8.36116 0.0015809 0)
(8.36305 0.000907366 0)
(8.36492 0.000173562 0)
(8.36675 -0.000619047 0)
(8.36854 -0.00146934 0)
(8.3703 -0.00237645 0)
(8.37201 -0.00333966 0)
(8.37369 -0.00435831 0)
(8.37532 -0.00543172 0)
(8.3769 -0.00655917 0)
(8.37843 -0.0077398 0)
(8.37992 -0.00897256 0)
(8.38136 -0.0102562 0)
(8.38274 -0.0115893 0)
(8.38407 -0.0129689 0)
(8.33303 0.000303344 0)
(8.33329 0.000895453 0)
(8.33386 0.00144159 0)
(8.33468 0.00192348 0)
(8.33571 0.00233081 0)
(8.33694 0.00265726 0)
(8.33834 0.0028996 0)
(8.33987 0.00305704 0)
(8.34152 0.00313054 0)
(8.34325 0.00312133 0)
(8.34505 0.00303343 0)
(8.3469 0.00286923 0)
(8.34878 0.00263122 0)
(8.35068 0.0023221 0)
(8.35258 0.00194579 0)
(8.35448 0.00150406 0)
(8.35638 0.000999085 0)
(8.35825 0.000433159 0)
(8.3601 -0.000191983 0)
(8.36192 -0.000874757 0)
(8.36372 -0.00161406 0)
(8.36547 -0.0024087 0)
(8.36719 -0.00325775 0)
(8.36887 -0.00416044 0)
(8.37051 -0.00511608 0)
(8.3721 -0.00612398 0)
(8.37365 -0.0071834 0)
(8.37514 -0.00829356 0)
(8.37659 -0.00945351 0)
(8.37799 -0.0106622 0)
(8.37933 -0.0119182 0)
(8.38062 -0.0132204 0)
(8.38186 -0.0145657 0)
(8.33302 0.000209373 0)
(8.33327 0.00061777 0)
(8.33381 0.000989311 0)
(8.33459 0.00130803 0)
(8.33558 0.00156519 0)
(8.33676 0.00175529 0)
(8.3381 0.00187533 0)
(8.33958 0.00192442 0)
(8.34117 0.00190366 0)
(8.34284 0.00180831 0)
(8.34458 0.00164474 0)
(8.34637 0.00141569 0)
(8.34819 0.00112271 0)
(8.35003 0.000767902 0)
(8.35187 0.000351793 0)
(8.35371 -0.000122738 0)
(8.35554 -0.000653978 0)
(8.35735 -0.00124054 0)
(8.35913 -0.00188125 0)
(8.36089 -0.00257513 0)
(8.36261 -0.00332108 0)
(8.3643 -0.00411834 0)
(8.36594 -0.00496624 0)
(8.36754 -0.0058641 0)
(8.3691 -0.00681127 0)
(8.37062 -0.00780711 0)
(8.37208 -0.00885087 0)
(8.37349 -0.00994175 0)
(8.37486 -0.0110788 0)
(8.37617 -0.012261 0)
(8.37742 -0.013487 0)
(8.37862 -0.0147557 0)
(8.37977 -0.0160642 0)
(8.33302 0.000115872 0)
(8.33327 0.000335382 0)
(8.33378 0.000517764 0)
(8.33453 0.000650162 0)
(8.33548 0.000728962 0)
(8.33662 0.000753424 0)
(8.33791 0.000723508 0)
(8.33934 0.000639752 0)
(8.34087 0.000501827 0)
(8.34249 0.000317158 0)
(8.34417 7.94832e-05 0)
(8.3459 -0.000211621 0)
(8.34767 -0.000554866 0)
(8.34944 -0.00094933 0)
(8.35123 -0.00139589 0)
(8.35301 -0.00189285 0)
(8.35477 -0.00243945 0)
(8.35652 -0.00303542 0)
(8.35824 -0.00368024 0)
(8.35993 -0.00437335 0)
(8.36159 -0.00511428 0)
(8.3632 -0.0059026 0)
(8.36478 -0.00673785 0)
(8.36631 -0.00761952 0)
(8.36779 -0.00854707 0)
(8.36923 -0.00951992 0)
(8.37061 -0.0105374 0)
(8.37194 -0.0115986 0)
(8.37322 -0.0127028 0)
(8.37445 -0.0138488 0)
(8.37562 -0.0150355 0)
(8.37673 -0.0162617 0)
(8.37779 -0.0175247 0)
(8.33302 3.09495e-05 0)
(8.33324 9.41313e-05 0)
(8.33372 0.000136391 0)
(8.33443 0.000141307 0)
(8.33534 0.000101817 0)
(8.33644 1.47016e-05 0)
(8.33769 -0.000121123 0)
(8.33908 -0.000305038 0)
(8.34058 -0.000536843 0)
(8.34217 -0.000808257 0)
(8.34381 -0.00112495 0)
(8.3455 -0.00148713 0)
(8.34722 -0.00189344 0)
(8.34895 -0.00234365 0)
(8.35068 -0.00283641 0)
(8.35241 -0.00337227 0)
(8.35412 -0.00395118 0)
(8.35581 -0.0045729 0)
(8.35747 -0.00523725 0)
(8.3591 -0.00594406 0)
(8.36069 -0.00669319 0)
(8.36224 -0.00748443 0)
(8.36374 -0.00831757 0)
(8.3652 -0.00919232 0)
(8.36661 -0.0101083 0)
(8.36797 -0.0110651 0)
(8.36928 -0.0120622 0)
(8.37053 -0.0130988 0)
(8.37173 -0.0141742 0)
(8.37288 -0.0152875 0)
(8.37396 -0.0164376 0)
(8.37499 -0.0176235 0)
(8.37597 -0.0188429 0)
(8.33303 -7.00164e-05 0)
(8.33326 -0.000233982 0)
(8.33374 -0.000443991 0)
(8.33443 -0.000698212 0)
(8.33531 -0.000982344 0)
(8.33637 -0.00128518 0)
(8.33759 -0.00160123 0)
(8.33893 -0.00192932 0)
(8.34038 -0.00227042 0)
(8.34191 -0.00263342 0)
(8.34351 -0.00301745 0)
(8.34514 -0.00342528 0)
(8.34681 -0.00386059 0)
(8.34849 -0.00432634 0)
(8.35017 -0.00482476 0)
(8.35185 -0.00535794 0)
(8.35351 -0.00592725 0)
(8.35514 -0.00653369 0)
(8.35674 -0.00717805 0)
(8.35831 -0.00786085 0)
(8.35984 -0.00858243 0)
(8.36133 -0.00934293 0)
(8.36277 -0.0101424 0)
(8.36416 -0.0109806 0)
(8.36551 -0.0118573 0)
(8.3668 -0.0127721 0)
(8.36803 -0.0137245 0)
(8.36921 -0.0147138 0)
(8.37034 -0.0157392 0)
(8.3714 -0.0167998 0)
(8.37241 -0.0178946 0)
(8.37336 -0.0190226 0)
(8.37425 -0.0201815 0)
(8.333 -0.000114673 0)
(8.33315 -0.000307433 0)
(8.33355 -0.000506287 0)
(8.33419 -0.000747622 0)
(8.33505 -0.00104302 0)
(8.33611 -0.0013904 0)
(8.33733 -0.00178144 0)
(8.33869 -0.00220722 0)
(8.34015 -0.00266092 0)
(8.34169 -0.00313862 0)
(8.34328 -0.00363683 0)
(8.3449 -0.00415522 0)
(8.34655 -0.00469446 0)
(8.3482 -0.00525547 0)
(8.34985 -0.00583938 0)
(8.35148 -0.00644757 0)
(8.35309 -0.00708144 0)
(8.35468 -0.00774228 0)
(8.35623 -0.00843124 0)
(8.35774 -0.00914933 0)
(8.35921 -0.00989737 0)
(8.36063 -0.010676 0)
(8.36201 -0.0114858 0)
(8.36334 -0.012327 0)
(8.36461 -0.0131998 0)
(8.36583 -0.0141042 0)
(8.36699 -0.01504 0)
(8.3681 -0.0160069 0)
(8.36915 -0.0170045 0)
(8.37013 -0.0180321 0)
(8.37107 -0.019089 0)
(8.37194 -0.0201746 0)
(8.37275 -0.0212868 0)
(8.33306 -0.000312693 0)
(8.33334 -0.0010104 0)
(8.3338 -0.00178569 0)
(8.33443 -0.00257022 0)
(8.33522 -0.00330818 0)
(8.3362 -0.00397957 0)
(8.33733 -0.00458602 0)
(8.3386 -0.00513833 0)
(8.33999 -0.00565013 0)
(8.34146 -0.00613559 0)
(8.34299 -0.00660687 0)
(8.34457 -0.00707445 0)
(8.34617 -0.00754708 0)
(8.34778 -0.00803174 0)
(8.34939 -0.00853392 0)
(8.35098 -0.0090579 0)
(8.35255 -0.00960692 0)
(8.3541 -0.0101834 0)
(8.35561 -0.0107891 0)
(8.35707 -0.0114253 0)
(8.3585 -0.0120927 0)
(8.35987 -0.0127921 0)
(8.3612 -0.0135235 0)
(8.36247 -0.0142871 0)
(8.36369 -0.0150826 0)
(8.36485 -0.0159099 0)
(8.36595 -0.0167684 0)
(8.367 -0.0176576 0)
(8.36798 -0.0185767 0)
(8.3689 -0.0195251 0)
(8.36977 -0.0205018 0)
(8.37057 -0.021506 0)
(8.37131 -0.0225357 0)
(8.33294 -6.87416e-05 0)
(8.33286 -0.000120108 0)
(8.33308 -0.000239717 0)
(8.33367 -0.000552085 0)
(8.33457 -0.00106137 0)
(8.3357 -0.00171049 0)
(8.33699 -0.00243998 0)
(8.33841 -0.00320776 0)
(8.3399 -0.00398759 0)
(8.34146 -0.0047643 0)
(8.34305 -0.00553002 0)
(8.34465 -0.0062821 0)
(8.34626 -0.00702129 0)
(8.34786 -0.00775016 0)
(8.34944 -0.00847218 0)
(8.351 -0.00919117 0)
(8.35253 -0.00991095 0)
(8.35402 -0.0106351 0)
(8.35548 -0.0113669 0)
(8.35688 -0.0121092 0)
(8.35824 -0.0128644 0)
(8.35955 -0.0136347 0)
(8.36081 -0.0144218 0)
(8.36201 -0.0152271 0)
(8.36316 -0.0160517 0)
(8.36425 -0.0168963 0)
(8.36527 -0.0177616 0)
(8.36624 -0.0186479 0)
(8.36715 -0.0195553 0)
(8.368 -0.0204837 0)
(8.36879 -0.0214329 0)
(8.36951 -0.0224025 0)
(8.37018 -0.0233914 0)
(8.33317 -0.000771871 0)
(8.33367 -0.0026604 0)
(8.33407 -0.00461354 0)
(8.33446 -0.00628187 0)
(8.33502 -0.00759289 0)
(8.33581 -0.00860211 0)
(8.33683 -0.00938404 0)
(8.33804 -0.0100028 0)
(8.33938 -0.0105098 0)
(8.34083 -0.0109451 0)
(8.34235 -0.0113388 0)
(8.34391 -0.0117132 0)
(8.34549 -0.0120842 0)
(8.34708 -0.0124632 0)
(8.34866 -0.0128578 0)
(8.35022 -0.0132736 0)
(8.35174 -0.0137142 0)
(8.35323 -0.0141819 0)
(8.35468 -0.0146781 0)
(8.35608 -0.0152035 0)
(8.35743 -0.0157587 0)
(8.35872 -0.0163435 0)
(8.35995 -0.0169577 0)
(8.36113 -0.0176009 0)
(8.36225 -0.0182726 0)
(8.3633 -0.0189722 0)
(8.36429 -0.019699 0)
(8.36522 -0.0204521 0)
(8.36609 -0.0212309 0)
(8.36689 -0.0220344 0)
(8.36763 -0.0228618 0)
(8.36831 -0.0237122 0)
(8.36892 -0.024584 0)
(8.33263 0.000575206 0)
(8.33174 0.00199252 0)
(8.33174 0.00287026 0)
(8.33259 0.00278491 0)
(8.33386 0.00194109 0)
(8.33531 0.00070037 0)
(8.33687 -0.000701735 0)
(8.33847 -0.0021411 0)
(8.34009 -0.00355094 0)
(8.34171 -0.00489548 0)
(8.34332 -0.00615946 0)
(8.34492 -0.00734062 0)
(8.34649 -0.00844372 0)
(8.34804 -0.00947696 0)
(8.34955 -0.0104499 0)
(8.35102 -0.0113725 0)
(8.35246 -0.012254 0)
(8.35385 -0.0131028 0)
(8.3552 -0.0139267 0)
(8.3565 -0.0147322 0)
(8.35774 -0.0155249 0)
(8.35894 -0.0163098 0)
(8.36008 -0.0170908 0)
(8.36116 -0.0178715 0)
(8.36219 -0.0186546 0)
(8.36315 -0.0194424 0)
(8.36406 -0.0202367 0)
(8.36491 -0.021039 0)
(8.36569 -0.0218504 0)
(8.36642 -0.0226717 0)
(8.36708 -0.0235033 0)
(8.36768 -0.0243456 0)
(8.36822 -0.025198 0)
(8.33358 -0.00195491 0)
(8.33467 -0.00688851 0)
(8.33442 -0.0116694 0)
(8.33372 -0.0148483 0)
(8.33348 -0.0166227 0)
(8.33389 -0.0175837 0)
(8.33476 -0.0180579 0)
(8.33595 -0.0182391 0)
(8.33736 -0.0182619 0)
(8.3389 -0.0182136 0)
(8.34053 -0.0181482 0)
(8.3422 -0.0180986 0)
(8.34389 -0.0180836 0)
(8.34556 -0.0181132 0)
(8.34721 -0.0181919 0)
(8.34882 -0.0183212 0)
(8.35039 -0.0185002 0)
(8.35191 -0.018727 0)
(8.35337 -0.0189995 0)
(8.35477 -0.0193148 0)
(8.35611 -0.0196705 0)
(8.35739 -0.0200641 0)
(8.35861 -0.020493 0)
(8.35976 -0.0209552 0)
(8.36084 -0.0214485 0)
(8.36186 -0.0219711 0)
(8.36282 -0.0225212 0)
(8.3637 -0.0230973 0)
(8.36453 -0.0236979 0)
(8.36528 -0.0243215 0)
(8.36597 -0.0249671 0)
(8.3666 -0.0256336 0)
(8.36716 -0.0263194 0)
(8.33162 0.00369595 0)
(8.32827 0.0102506 0)
(8.32843 0.0134147 0)
(8.33098 0.0133655 0)
(8.33359 0.0113139 0)
(8.33579 0.00847504 0)
(8.33775 0.00547868 0)
(8.33956 0.00256829 0)
(8.34123 -0.000144069 0)
(8.34282 -0.00261043 0)
(8.34434 -0.00482535 0)
(8.34582 -0.00680475 0)
(8.34726 -0.00857293 0)
(8.34868 -0.0101566 0)
(8.35007 -0.0115822 0)
(8.35143 -0.0128739 0)
(8.35277 -0.0140534 0)
(8.35408 -0.0151394 0)
(8.35536 -0.0161481 0)
(8.3566 -0.0170932 0)
(8.35781 -0.0179864 0)
(8.35897 -0.0188374 0)
(8.3601 -0.0196544 0)
(8.36117 -0.0204443 0)
(8.3622 -0.0212128 0)
(8.36317 -0.0219647 0)
(8.36409 -0.0227039 0)
(8.36496 -0.0234338 0)
(8.36577 -0.0241568 0)
(8.36652 -0.0248752 0)
(8.36722 -0.0255907 0)
(8.36785 -0.0263043 0)
(8.36843 -0.0270167 0)
(8.3343 -0.00642742 0)
(8.33462 -0.020667 0)
(8.33073 -0.029888 0)
(8.32673 -0.0338724 0)
(8.32481 -0.0347596 0)
(8.3249 -0.0342051 0)
(8.32608 -0.0330213 0)
(8.32782 -0.0316052 0)
(8.32988 -0.0301788 0)
(8.33215 -0.028859 0)
(8.33451 -0.027697 0)
(8.33691 -0.0267094 0)
(8.33931 -0.0258944 0)
(8.34168 -0.0252416 0)
(8.344 -0.0247364 0)
(8.34627 -0.0243628 0)
(8.34847 -0.0241056 0)
(8.3506 -0.0239504 0)
(8.35266 -0.0238845 0)
(8.35465 -0.0238966 0)
(8.35655 -0.023977 0)
(8.35838 -0.0241171 0)
(8.36013 -0.0243096 0)
(8.36179 -0.0245484 0)
(8.36338 -0.0248281 0)
(8.36488 -0.0251441 0)
(8.3663 -0.0254927 0)
(8.36764 -0.0258703 0)
(8.36891 -0.0262742 0)
(8.37009 -0.0267019 0)
(8.37119 -0.0271513 0)
(8.37222 -0.0276208 0)
(8.37317 -0.0281084 0)
(8.32884 0.0225994 0)
(8.32235 0.0427832 0)
(8.32668 0.0440207 0)
(8.33331 0.0380717 0)
(8.33783 0.0307323 0)
(8.34068 0.0235918 0)
(8.34299 0.0169635 0)
(8.34518 0.0110238 0)
(8.34737 0.00582826 0)
(8.34965 0.00132926 0)
(8.35202 -0.0025533 0)
(8.35448 -0.00590125 0)
(8.35703 -0.00879218 0)
(8.35962 -0.0112965 0)
(8.36226 -0.0134756 0)
(8.3649 -0.0153817 0)
(8.36753 -0.0170591 0)
(8.37014 -0.0185447 0)
(8.37271 -0.0198697 0)
(8.37523 -0.0210599 0)
(8.37768 -0.022137 0)
(8.38006 -0.023119 0)
(8.38237 -0.0240211 0)
(8.38459 -0.0248559 0)
(8.38672 -0.0256341 0)
(8.38877 -0.0263645 0)
(8.39072 -0.0270546 0)
(8.39257 -0.0277107 0)
(8.39433 -0.0283383 0)
(8.396 -0.0289419 0)
(8.39756 -0.0295255 0)
(8.39903 -0.0300918 0)
(8.4004 -0.0306452 0)
(8.32436 -0.0380253 0)
(8.29386 -0.0683068 0)
(8.27216 -0.0716731 0)
(8.26669 -0.0685668 0)
(8.27358 -0.0642112 0)
(8.28619 -0.0593802 0)
(8.30093 -0.054697 0)
(8.31623 -0.0505215 0)
(8.33125 -0.0469142 0)
(8.34553 -0.0438499 0)
(8.35885 -0.0412833 0)
(8.37117 -0.0391554 0)
(8.38249 -0.037404 0)
(8.39286 -0.0359721 0)
(8.40233 -0.0348096 0)
(8.41096 -0.0338732 0)
(8.41883 -0.0331264 0)
(8.426 -0.0325385 0)
(8.43252 -0.032084 0)
(8.43844 -0.0317418 0)
(8.44382 -0.0314942 0)
(8.44869 -0.0313268 0)
(8.45311 -0.0312275 0)
(8.45709 -0.0311863 0)
(8.46068 -0.0311948 0)
(8.46391 -0.031246 0)
(8.4668 -0.0313339 0)
(8.46937 -0.0314536 0)
(8.47165 -0.0316009 0)
(8.47366 -0.031772 0)
(8.47541 -0.0319636 0)
(8.47693 -0.0321729 0)
(8.47823 -0.0323961 0)
(8.34002 0.15699 0)
(8.38199 0.149001 0)