/*--------------------------------*- C++ -*----------------------------------*\
| =========                 |                                                 |
| \\      /  F ield         | OpenFOAM: The Open Source CFD Toolbox           |
|  \\    /   O peration     | Version:  2.1.1                                 |
|   \\  /    A nd           | Web:      www.OpenFOAM.org                      |
|    \\/     M anipulation  |                                                 |
\*---------------------------------------------------------------------------*/
FoamFile
{
    version     2.0;
    format      ascii;
    class       volScalarField;
    location    "0.085";
    object      epsilon;
}
// * * * * * * * * * * * * * * * * * * * * * * * * * * * * * * * * * * * * * //

dimensions      [0 2 -3 0 0 0 0];

internalField   nonuniform List<scalar> 
6820
(
151.448
203.151
260.735
321.761
383.629
443.725
499.765
550.038
593.488
629.673
658.66
680.889
697.034
707.89
714.284
717.013
716.804
714.298
710.045
704.503
698.048
690.982
683.545
675.923
668.259
660.659
653.196
645.941
638.845
632.307
624.486
624.157
589.259
11.7448
21.4174
29.944
38.6248
47.581
56.559
65.3217
73.6683
81.4366
88.5183
94.8587
100.451
105.325
109.539
113.162
116.275
118.953
121.27
123.293
125.079
126.678
128.131
129.475
130.737
131.944
133.117
134.277
135.448
136.657
137.975
139.429
141.444
143.895
5.83781
7.51678
9.20657
10.8092
12.3197
13.7472
15.0882
16.339
17.4979
18.5648
19.5416
20.4317
21.2405
21.9745
22.641
23.2477
23.8021
24.3118
24.7837
25.2242
25.6391
26.0335
26.4119
26.7782
27.1359
27.4879
27.8366
28.1846
28.5339
28.8874
29.2486
29.6131
30.036
5.2423
5.56004
6.00443
6.49345
6.98566
7.46184
7.9129
8.33452
8.72504
9.08429
9.41302
9.71258
9.98466
10.2312
10.4541
10.6555
10.8374
11.0017
11.1502
11.2848
11.407
11.5183
11.6202
11.7138
11.8003
11.8807
11.9558
12.0263
12.0927
12.1553
12.2137
12.2687
12.3166
5.17349
5.18677
5.26821
5.39776
5.55637
5.72967
5.90778
6.08426
6.25508
6.41782
6.57109
6.71418
6.84686
6.96918
7.08143
7.18401
7.27742
7.36221
7.43897
7.50827
7.57072
7.62687
7.67729
7.7225
7.763
7.79925
7.83169
7.8607
7.88664
7.90983
7.93048
7.94888
7.965
5.16878
5.12131
5.09602
5.09482
5.11536
5.15307
5.20299
5.26075
5.32292
5.38693
5.4509
5.5135
5.57382
5.63125
5.6854
5.73604
5.78308
5.82651
5.86639
5.90282
5.93594
5.96592
5.99294
6.01718
6.03883
6.05809
6.07515
6.0902
6.10341
6.11496
6.12501
6.13369
6.14119
5.16887
5.11169
5.06116
5.01963
4.9884
4.96754
4.95615
4.95279
4.95587
4.96386
4.97543
4.98946
5.00504
5.02145
5.03813
5.05464
5.07068
5.08599
5.10041
5.11384
5.12619
5.13744
5.14757
5.1566
5.16455
5.17148
5.17741
5.18242
5.18657
5.18992
5.19254
5.19448
5.19582
5.16902
5.11063
5.05514
5.00339
4.95619
4.91413
4.87746
4.8461
4.81971
4.7978
4.77979
4.76509
4.75315
4.74347
4.7356
4.72915
4.7238
4.71927
4.71535
4.71184
4.7086
4.70551
4.70249
4.69944
4.69634
4.69313
4.68979
4.6863
4.68267
4.67888
4.67496
4.67089
4.66669
5.16904
5.11054
5.05431
5.00049
4.94927
4.9009
4.85558
4.81345
4.77454
4.7388
4.70609
4.67621
4.64893
4.62402
4.60122
4.5803
4.56104
4.54322
4.52667
4.51121
4.49672
4.48305
4.47011
4.45779
4.44601
4.43471
4.42383
4.41333
4.40315
4.39328
4.38368
4.37432
4.36519
5.16904
5.11054
5.0542
5.00002
4.94795
4.89803
4.85027
4.8047
4.76137
4.72026
4.68137
4.64463
4.60998
4.57732
4.54655
4.51754
4.49019
4.46436
4.43995
4.41684
4.39492
4.3741
4.35428
4.33539
4.31734
4.30008
4.28353
4.26764
4.25237
4.23767
4.2235
4.20983
4.19662
5.16904
5.11053
5.05418
4.99994
4.94772
4.89747
4.84912
4.80264
4.75798
4.71512
4.67403
4.63467
4.59701
4.56098
4.52655
4.49365
4.46221
4.43218
4.40348
4.37603
4.34979
4.32467
4.30061
4.27755
4.25544
4.23421
4.21382
4.19422
4.17536
4.15721
4.13972
4.12286
4.10658
5.16904
5.11052
5.05417
4.99991
4.94767
4.89735
4.84888
4.80218
4.75718
4.71383
4.67207
4.63186
4.59314
4.55587
4.52
4.48548
4.45228
4.42033
4.3896
4.36003
4.33158
4.30421
4.27785
4.25248
4.22804
4.2045
4.18181
4.15993
4.13883
4.11847
4.09883
4.07985
4.06152
5.16904
5.11052
5.05416
4.99989
4.94764
4.89731
4.8488
4.80205
4.75698
4.7135
4.67157
4.63111
4.59207
4.55439
4.51803
4.48294
4.44907
4.41637
4.38481
4.35434
4.32492
4.29651
4.26907
4.24258
4.21698
4.19224
4.16834
4.14524
4.1229
4.10131
4.08042
4.06022
4.04067
5.16903
5.11052
5.05415
4.99988
4.94762
4.89728
4.84876
4.802
4.7569
4.71339
4.67141
4.63088
4.59175
4.55396
4.51745
4.48218
4.44808
4.41513
4.38327
4.35246
4.32266
4.29384
4.26596
4.23898
4.21287
4.1876
4.16314
4.13946
4.11653
4.09432
4.07281
4.05197
4.03178
5.16903
5.11051
5.05414
4.99987
4.9476
4.89725
4.84873
4.80195
4.75684
4.71332
4.67132
4.63078
4.59162
4.55379
4.51724
4.48191
4.44775
4.41471
4.38275
4.35183
4.3219
4.29293
4.26488
4.23772
4.21142
4.18594
4.16125
4.13732
4.11413
4.09166
4.06987
4.04874
4.02825
5.16903
5.11051
5.05413
4.99986
4.94758
4.89723
4.8487
4.80192
4.7568
4.71327
4.67126
4.6307
4.59153
4.55369
4.51712
4.48177
4.44758
4.41452
4.38253
4.35157
4.3216
4.29258
4.26447
4.23725
4.21087
4.18531
4.16054
4.13652
4.11324
4.09066
4.06876
4.04751
4.0269
5.16903
5.1105
5.05413
4.99985
4.94757
4.89721
4.84867
4.80188
4.75676
4.71322
4.6712
4.63063
4.59146
4.5536
4.51702
4.48166
4.44747
4.41439
4.38238
4.35141
4.32142
4.29238
4.26426
4.23701
4.21061
4.18502
4.16022
4.13617
4.11285
4.09023
4.06828
4.04699
4.02633
5.16903
5.1105
5.05412
4.99984
4.94756
4.89719
4.84865
4.80185
4.75672
4.71318
4.67115
4.63058
4.59139
4.55353
4.51694
4.48157
4.44736
4.41428
4.38226
4.35128
4.32128
4.29224
4.2641
4.23684
4.21043
4.18483
4.16001
4.13595
4.11261
4.08998
4.06801
4.04671
4.02603
5.16903
5.1105
5.05412
4.99983
4.94755
4.89718
4.84863
4.80183
4.75669
4.71314
4.6711
4.63052
4.59133
4.55346
4.51686
4.48148
4.44727
4.41418
4.38216
4.35116
4.32116
4.2921
4.26396
4.2367
4.21028
4.18467
4.15984
4.13577
4.11242
4.08978
4.06781
4.04649
4.0258
5.16903
5.1105
5.05412
4.99982
4.94754
4.89716
4.84861
4.8018
4.75666
4.7131
4.67106
4.63047
4.59127
4.5534
4.51679
4.48141
4.44719
4.41408
4.38206
4.35106
4.32104
4.29198
4.26383
4.23656
4.21013
4.18452
4.15968
4.1356
4.11225
4.0896
4.06762
4.04629
4.02559
5.16903
5.1105
5.05411
4.99982
4.94753
4.89715
4.8486
4.80178
4.75663
4.71307
4.67103
4.63043
4.59122
4.55334
4.51673
4.48134
4.44711
4.414
4.38196
4.35096
4.32094
4.29187
4.26371
4.23643
4.21
4.18438
4.15954
4.13545
4.11209
4.08943
4.06744
4.04611
4.0254
5.16903
5.11049
5.05411
4.99981
4.94752
4.89714
4.84858
4.80177
4.75661
4.71304
4.67099
4.63039
4.59118
4.55329
4.51667
4.48127
4.44704
4.41392
4.38188
4.35086
4.32084
4.29176
4.2636
4.23631
4.20987
4.18424
4.15939
4.1353
4.11193
4.08926
4.06727
4.04593
4.02521
5.16903
5.11049
5.05411
4.99981
4.94752
4.89713
4.84857
4.80175
4.75659
4.71302
4.67096
4.63036
4.59114
4.55324
4.51662
4.48121
4.44697
4.41385
4.3818
4.35078
4.32075
4.29166
4.26349
4.2362
4.20975
4.18411
4.15926
4.13516
4.11178
4.0891
4.0671
4.04575
4.02502
5.16903
5.11049
5.0541
4.99981
4.94751
4.89712
4.84856
4.80174
4.75657
4.713
4.67094
4.63033
4.5911
4.5532
4.51657
4.48116
4.44691
4.41378
4.38173
4.3507
4.32066
4.29157
4.26339
4.23609
4.20964
4.18399
4.15913
4.13502
4.11163
4.08895
4.06694
4.04558
4.02484
5.16903
5.11049
5.0541
4.9998
4.94751
4.89712
4.84855
4.80172
4.75656
4.71298
4.67091
4.6303
4.59107
4.55316
4.51653
4.48111
4.44686
4.41372
4.38166
4.35063
4.32058
4.29149
4.2633
4.23599
4.20953
4.18388
4.15901
4.13489
4.1115
4.0888
4.06678
4.04541
4.02467
5.16903
5.11049
5.0541
4.9998
4.9475
4.89711
4.84855
4.80172
4.75655
4.71296
4.67089
4.63027
4.59104
4.55313
4.51649
4.48107
4.44681
4.41367
4.3816
4.35056
4.32051
4.29141
4.26322
4.2359
4.20943
4.18377
4.15889
4.13477
4.11137
4.08866
4.06663
4.04525
4.0245
5.16903
5.11049
5.0541
4.9998
4.9475
4.89711
4.84854
4.80171
4.75653
4.71295
4.67087
4.63025
4.59101
4.5531
4.51646
4.48103
4.44677
4.41362
4.38155
4.3505
4.32045
4.29134
4.26314
4.23582
4.20934
4.18367
4.15878
4.13465
4.11124
4.08853
4.06649
4.0451
4.02434
5.16903
5.11049
5.0541
4.9998
4.9475
4.89711
4.84853
4.8017
4.75653
4.71294
4.67087
4.63024
4.591
4.55308
4.51644
4.481
4.44674
4.41359
4.38151
4.35046
4.32039
4.29128
4.26307
4.23575
4.20926
4.18359
4.15869
4.13455
4.11113
4.08841
4.06636
4.04496
4.02419
5.16903
5.11049
5.0541
4.9998
4.9475
4.8971
4.84853
4.80169
4.75651
4.71292
4.67085
4.63022
4.59097
4.55305
4.5164
4.48097
4.4467
4.41354
4.38146
4.3504
4.32034
4.29122
4.26301
4.23567
4.20918
4.1835
4.1586
4.13445
4.11102
4.0883
4.06624
4.04483
4.02405
5.16903
5.11049
5.0541
4.9998
4.9475
4.89711
4.84854
4.8017
4.75653
4.71294
4.67086
4.63023
4.59099
4.55307
4.51641
4.48097
4.4467
4.41354
4.38145
4.35039
4.32032
4.29119
4.26298
4.23564
4.20914
4.18345
4.15854
4.13439
4.11095
4.08822
4.06615
4.04474
4.02394
5.16903
5.11049
5.0541
4.9998
4.9475
4.8971
4.84853
4.80169
4.75651
4.71292
4.67084
4.63021
4.59096
4.55304
4.51638
4.48094
4.44667
4.41351
4.38142
4.35036
4.32029
4.29116
4.26294
4.2356
4.2091
4.18341
4.1585
4.13434
4.11091
4.08817
4.0661
4.04468
4.02388
5.16903
5.11049
5.0541
4.99981
4.94752
4.89714
4.84858
4.80176
4.7566
4.71301
4.67094
4.63031
4.59107
4.55315
4.51649
4.48106
4.44678
4.41362
4.38153
4.35047
4.3204
4.29127
4.26306
4.23572
4.20923
4.18354
4.15864
4.13449
4.11106
4.08833
4.06628
4.04487
4.02409
5.16903
5.11051
5.05414
4.99985
4.94756
4.89718
4.84861
4.80178
4.75661
4.71303
4.67096
4.63034
4.59111
4.55321
4.51657
4.48116
4.44691
4.41379
4.38174
4.35072
4.32069
4.29162
4.26346
4.23618
4.20975
4.18414
4.15931
4.13524
4.11189
4.08925
4.06729
4.04597
4.02529
5.16903
5.1105
5.05415
4.99992
4.9477
4.89739
4.8489
4.80214
4.75704
4.71352
4.67152
4.63098
4.59183
4.55402
4.5175
4.48222
4.44812
4.41516
4.3833
4.35249
4.32269
4.29387
4.26598
4.23899
4.21287
4.18757
4.16308
4.13937
4.11639
4.09413
4.07255
4.05164
4.03137
5.16905
5.11063
5.0544
5.00025
4.94809
4.89785
4.84947
4.80288
4.75802
4.71483
4.67324
4.63319
4.59463
4.5575
4.52174
4.4873
4.45413
4.42217
4.39138
4.3617
4.33309
4.3055
4.2789
4.25323
4.22847
4.20456
4.18148
4.1592
4.13766
4.11686
4.09674
4.0773
4.05848
5.16908
5.11079
5.05488
5.00137
4.95017
4.90121
4.85441
4.80973
4.76712
4.72651
4.68783
4.65101
4.61597
4.58263
4.55089
4.52068
4.4919
4.46447
4.43832
4.41337
4.38954
4.36678
4.345
4.32417
4.30421
4.28507
4.26671
4.24909
4.23214
4.21585
4.20017
4.18507
4.1705
5.16939
5.11358
5.06201
5.01464
4.97149
4.9325
4.89748
4.86617
4.83827
4.81343
4.79133
4.77168
4.75419
4.7386
4.72468
4.71221
4.70101
4.69092
4.68179
4.67349
4.6659
4.65894
4.65251
4.64654
4.64096
4.63572
4.63076
4.62604
4.62152
4.61718
4.61297
4.60888
4.60489
5.17808
5.16328
5.1695
5.19119
5.22438
5.26604
5.31378
5.36572
5.42044
5.47684
5.53409
5.59152
5.64864
5.70506
5.76048
5.81469
5.8675
5.91883
5.96857
6.01669
6.06317
6.10798
6.15114
6.19267
6.23259
6.27094
6.30775
6.34308
6.37696
6.40944
6.44057
6.4704
6.499
5.63861
6.43045
7.14591
7.82574
8.49483
9.14719
9.77693
10.3817
10.9613
11.5167
12.0492
12.5603
13.0517
13.5247
13.9806
14.4205
14.8455
15.2564
15.6539
16.0389
16.4118
16.7734
17.1242
17.4645
17.795
18.116
18.428
18.7314
19.0264
19.3137
19.5933
19.8658
20.1315
44.7794
48.3124
51.8864
55.4656
59.0311
62.5709
66.0744
69.5318
72.9345
76.2746
79.5454
82.7408
85.8562
88.8874
91.8314
94.6857
97.4486
100.119
102.697
105.182
107.575
109.876
112.087
114.209
116.244
118.194
120.061
121.847
123.555
125.186
126.745
128.231
129.65
699.137
829.314
942.693
1044.79
1135.99
1208.85
1254.07
1265.95
1245.07
1197.8
1133.72
1062.56
991.875
926.162
867.155
814.849
768.561
727.565
691.375
659.697
632.257
608.686
588.489
571.094
555.919
542.418
530.099
518.518
507.27
495.97
484.252
471.761
458.157
443.118
426.332
407.506
386.366
362.667
336.214
306.889
274.704
239.871
202.893
164.697
126.747
91.1007
60.2315
36.3963
20.5975
11.8636
7.83335
6.24093
5.71962
5.63559
5.72102
5.86116
6.0044
6.12712
6.21953
6.27927
6.30808
6.30986
6.2894
6.25154
6.20081
6.14116
6.07597
6.00808
5.93985
5.87316
5.80947
5.74985
5.69497
5.64516
5.60047
5.56072
5.5256
5.49471
5.46758
5.4437
5.42247
5.40324
5.38519
5.36733
5.34844
5.32707
5.30141
5.26939
5.22869
5.17688
5.11156
5.03065
4.93257
4.81645
4.68224
4.53041
4.3631
4.17635
4.00077
3.67637
148.758
156.087
167.862
186.437
214.202
253.315
304.956
368.503
440.901
516.646
588.566
649.361
693.429
718.275
724.593
715.537
696.083
671.175
644.608
618.701
594.515
572.316
551.989
533.304
516.026
499.93
484.773
470.278
456.128
441.983
427.494
412.32
396.142
378.662
359.609
338.746
315.872
290.85
263.625
234.274
203.06
170.509
137.497
105.312
75.6451
50.3787
31.0739
18.2547
11.0124
7.51014
6.02051
5.47135
5.33919
5.38891
5.51187
5.65435
5.78855
5.90035
5.98361
6.03705
6.06237
6.06295
6.0429
6.00646
5.9576
5.89989
5.83639
5.76973
5.70209
5.63529
5.57078
5.50964
5.45265
5.40026
5.35269
5.30991
5.27178
5.23803
5.20829
5.18216
5.15911
5.13855
5.11974
5.10174
5.08344
5.06347
5.04014
5.01152
4.97541
4.92949
4.87147
4.79929
4.71135
4.60668
4.48506
4.34679
4.19375
4.02209
3.86047
3.55958
30.4443
30.9046
31.5801
32.6993
34.5449
37.5504
42.4273
50.2192
62.1984
79.5904
103.207
133.119
168.484
207.54
248.074
287.679
323.615
353.368
375.425
389.511
396.412
397.556
394.544
388.801
381.394
372.998
363.955
354.366
344.182
333.27
321.459
308.566
294.413
278.832
261.684
242.866
222.335
200.136
176.431
151.551
126.038
100.687
76.5567
54.894
36.9226
23.477
14.6119
9.51114
6.91237
5.70932
5.21192
5.06264
5.08478
5.18759
5.32156
5.45841
5.58187
5.68304
5.7579
5.80576
5.82815
5.82793
5.80861
5.77385
5.72715
5.67169
5.61025
5.54524
5.47868
5.4123
5.34749
5.28536
5.22672
5.17214
5.12192
5.07622
5.035
4.99814
4.96539
4.93644
4.91087
4.88818
4.86769
4.84858
4.82984
4.81019
4.78812
4.76181
4.72924
4.68822
4.63656
4.57227
4.49373
4.39988
4.29035
4.16525
4.02621
3.8695
3.72174
3.44443
12.37
12.4419
12.5253
12.6163
12.7139
12.82
12.9483
13.1488
13.5471
14.3801
16.0002
18.8352
23.3189
29.8056
38.4899
49.3587
62.1378
76.7489
92.7437
109.387
125.798
141.108
154.593
165.765
174.396
180.478
184.154
185.636
185.138
182.828
178.817
173.161
165.878
156.978
146.483
134.46
121.045
106.469
91.0852
75.3822
59.9902
45.6446
33.0982
22.9659
15.5332
10.6319
7.71396
6.11521
5.29822
4.92227
4.79417
4.80509
4.8911
5.01291
5.14557
5.27305
5.38525
5.47628
5.54339
5.5862
5.60599
5.60516
5.58668
5.55371
5.50929
5.45625
5.39711
5.33405
5.26896
5.20345
5.13884
5.07622
5.01644
4.9601
4.90761
4.85923
4.81503
4.77502
4.73906
4.70696
4.6784
4.65296
4.63008
4.60904
4.58895
4.56867
4.54683
4.52179
4.49169
4.45451
4.40819
4.35082
4.28077
4.19694
4.09882
3.98633
3.86084
3.71873
3.5846
3.33071
7.98137
7.99883
8.01544
8.03075
8.04426
8.05464
8.05865
8.05102
8.02712
7.98999
7.96148
7.99278
8.16866
8.59958
9.40158
10.6692
12.4878
14.7565
17.4654
20.6314
24.2543
28.2967
32.6746
37.2575
41.878
46.3475
50.4734
54.073
56.9828
59.063
60.1988
60.3023
59.3157
57.2179
54.0332
49.8428
44.7949
39.1111
33.0851
27.0664
21.4247
16.4937
12.5023
9.52074
7.45818
6.12312
5.30784
4.84334
4.61055
4.52934
4.54553
4.62171
4.73145
4.85582
4.98115
5.09772
5.19886
5.28045
5.34047
5.37867
5.3961
5.39475
5.37712
5.34589
5.30375
5.25319
5.19645
5.13555
5.0722
5.0079
4.94392
4.88129
4.82084
4.76322
4.7089
4.6582
4.61129
4.56827
4.52912
4.49373
4.4619
4.43332
4.40753
4.38393
4.36175
4.34001
4.31749
4.29275
4.26411
4.22972
4.18768
4.13618
4.07364
3.99891
3.91138
3.8108
3.69828
3.5703
3.44944
3.21861
6.14825
6.15433
6.15871
6.16178
6.16381
6.16499
6.16531
6.16422
6.16032
6.15143
6.13564
6.11371
6.09243
6.0875
6.12427
6.23239
6.45247
6.76594
7.16707
7.65271
8.21924
8.86129
9.57099
10.3373
11.1451
11.9748
12.802
13.5969
14.3248
14.9463
15.4194
15.7011
15.7518
15.5403
15.0496
14.2841
13.2737
12.0759
10.7715
9.4538
8.21294
7.11991
6.21594
5.51163
4.99472
4.64069
4.4211
4.30823
4.27725
4.30676
4.3787
4.478
4.59221
4.71111
4.82647
4.93186
5.02258
5.09553
5.14914
5.18317
5.19846
5.19664
5.17979
5.15023
5.11027
5.06213
5.00782
4.94916
4.88773
4.82491
4.76188
4.69964
4.63898
4.58056
4.52487
4.47227
4.42302
4.37727
4.3351
4.29649
4.26133
4.22941
4.20039
4.17379
4.14897
4.1251
4.10115
4.07584
4.04771
4.0151
3.9763
3.9296
3.87353
3.80689
3.72902
3.6395
3.53922
3.42477
3.31668
3.10836
5.19656
5.1963
5.1949
5.19249
5.18932
5.18563
5.18166
5.17756
5.17324
5.16834
5.16215
5.15381
5.1428
5.12977
5.11764
5.11183
5.12063
5.14785
5.19568
5.26484
5.35468
5.46336
5.58804
5.72507
5.87012
6.01825
6.16399
6.30129
6.42362
6.52396
6.59499
6.62939
6.62033
6.56221
6.45154
6.28808
6.07572
5.82306
5.54311
5.25209
4.96742
4.70536
4.4791
4.29757
4.16522
4.08248
4.04659
4.0525
4.09371
4.16299
4.25288
4.35611
4.4658
4.5757
4.6803
4.77496
4.85611
4.92128
4.96914
4.99944
5.01281
5.01055
4.99443
4.96641
4.92851
4.88269
4.83076
4.77435
4.71493
4.65376
4.59195
4.53042
4.46994
4.41115
4.35455
4.30051
4.24934
4.20125
4.15637
4.11475
4.07638
4.04112
4.00876
3.97891
3.95109
3.92461
3.89861
3.87201
3.84355
3.8118
3.77522
3.73227
3.68157
3.62197
3.55272
3.47333
3.38444
3.28277
3.18684
3.00025
4.66157
4.65527
4.64836
4.64088
4.63295
4.62471
4.61633
4.60795
4.59968
4.59151
4.5833
4.57476
4.56547
4.55504
4.54332
4.53071
4.51822
4.50717
4.49889
4.49448
4.49462
4.49956
4.50904
4.52236
4.53845
4.55592
4.57315
4.58837
4.59968
4.60517
4.60296
4.59131
4.56873
4.53415
4.48706
4.42773
4.35736
4.27824
4.19376
4.10823
4.02666
3.95423
3.89581
3.85547
3.83605
3.83901
3.86437
3.9108
3.97583
4.05615
4.14784
4.24662
4.34808
4.44787
4.54191
4.62662
4.69912
4.75733
4.80008
4.82705
4.83869
4.83606
4.82061
4.79402
4.75805
4.71443
4.66478
4.6106
4.55321
4.49379
4.43337
4.3728
4.31283
4.25405
4.19695
4.14193
4.0893
4.0393
3.9921
3.94782
3.90649
3.86807
3.83242
3.79929
3.76829
3.7389
3.71042
3.68197
3.6525
3.62078
3.58549
3.54528
3.49887
3.44519
3.38349
3.31319
3.23473
3.14496
3.06046
2.89464
4.35477
4.34283
4.33068
4.31831
4.30577
4.29313
4.2805
4.26796
4.25559
4.24343
4.23149
4.21967
4.20783
4.19577
4.18324
4.17003
4.15605
4.14136
4.12613
4.11066
4.09526
4.08022
4.06572
4.05184
4.03852
4.02555
4.01261
3.99927
3.98506
3.96946
3.95197
3.93217
3.90974
3.88454
3.85668
3.82653
3.79485
3.76274
3.73172
3.70364
3.68061
3.66488
3.65862
3.66373
3.68166
3.71323
3.75854
3.81693
3.88703
3.96681
4.05375
4.14487
4.23696
4.32669
4.41086
4.48654
4.55129
4.60329
4.64148
4.66548
4.6756
4.67264
4.65781
4.63255
4.59838
4.55683
4.50937
4.45735
4.40198
4.34437
4.28544
4.22602
4.1668
4.10835
4.05114
3.99555
3.9419
3.89044
3.84137
3.79484
3.75092
3.70964
3.67093
3.63463
3.60047
3.56806
3.53686
3.50618
3.47515
3.44279
3.40797
3.36955
3.3264
3.27755
3.22227
3.15996
3.09089
3.01204
2.93814
2.79194
4.18173
4.16496
4.14818
4.13139
4.11462
4.0979
4.0813
4.06488
4.04869
4.03279
4.01721
4.00191
3.98687
3.97199
3.95714
3.94218
3.92694
3.9113
3.89516
3.87849
3.8613
3.84364
3.82558
3.80722
3.78864
3.76988
3.751
3.732
3.71288
3.69362
3.67421
3.65468
3.63512
3.61569
3.59666
3.57847
3.56168
3.54704
3.53548
3.52806
3.52595
3.53038
3.5425
3.56336
3.5937
3.63394
3.68406
3.74356
3.81146
3.88627
3.96611
4.04869
4.13147
4.21177
4.28693
4.35446
4.41227
4.45875
4.49287
4.51422
4.52295
4.51971
4.50546
4.48143
4.44894
4.40935
4.36397
4.31404
4.26066
4.20485
4.1475
4.08936
4.03108
3.97321
3.9162
3.8604
3.80615
3.75367
3.70319
3.65485
3.60878
3.56504
3.5236
3.4844
3.44725
3.41188
3.3779
3.34478
3.31185
3.27833
3.2433
3.20583
3.16498
3.11991
3.06995
3.01449
2.9537
2.88471
2.82047
2.69256
4.08828
4.06774
4.04729
4.02693
4.00668
3.98657
3.96663
3.94692
3.92748
3.90836
3.88958
3.87118
3.85313
3.83542
3.81799
3.80075
3.78362
3.7665
3.7493
3.73194
3.71434
3.69649
3.67837
3.66
3.64142
3.6227
3.60393
3.58519
3.5666
3.54829
3.53041
3.51314
3.49669
3.48134
3.46742
3.45534
3.4456
3.43876
3.43551
3.43656
3.4427
3.4547
3.4733
3.49911
3.5326
3.57395
3.62307
3.67954
3.74255
3.81091
3.88309
3.95724
4.03127
4.10292
4.16993
4.23016
4.28177
4.32329
4.35375
4.37271
4.3802
4.37669
4.36298
4.34009
4.30917
4.27142
4.22802
4.18008
4.12865
4.07464
4.01889
3.96212
3.90493
3.84783
3.79127
3.73558
3.68107
3.62798
3.57652
3.52684
3.47908
3.43332
3.38958
3.34785
3.30801
3.2699
3.23324
3.19765
3.16264
3.12761
3.09186
3.05466
3.01526
2.97298
2.92725
2.87752
2.82388
2.76363
2.70805
2.59697
4.0409
4.01774
3.99468
3.97173
3.94892
3.92625
3.90377
3.88152
3.85954
3.83788
3.81657
3.79564
3.7751
3.75497
3.73522
3.71582
3.69673
3.6779
3.65927
3.64079
3.62242
3.6041
3.58583
3.56759
3.54941
3.53132
3.5134
3.49573
3.47844
3.46168
3.44561
3.43044
3.41642
3.40383
3.39299
3.38428
3.37813
3.37502
3.37547
3.38003
3.38928
3.40377
3.42401
3.45043
3.4833
3.52273
3.56859
3.62049
3.67774
3.73936
3.80405
3.87028
3.93625
4.00005
4.05972
4.1134
4.15943
4.19649
4.22365
4.24043
4.24677
4.24301
4.22979
4.20795
4.17849
4.14247
4.10094
4.05492
4.00536
3.95313
3.899
3.84365
3.78764
3.73147
3.67556
3.62023
3.56577
3.51242
3.46037
3.40978
3.36078
3.31346
3.26788
3.22406
3.18193
3.14141
3.1023
3.06437
3.02726
2.99055
2.95374
2.91628
2.87762
2.83727
2.79479
2.7497
2.70206
2.64939
2.60143
2.50558
4.01863
3.99385
3.96915
3.94454
3.92004
3.89567
3.87146
3.84746
3.82369
3.80021
3.77705
3.75425
3.73183
3.70982
3.68821
3.66702
3.64622
3.62581
3.60575
3.58603
3.56661
3.54749
3.52864
3.51008
3.49181
3.47387
3.45632
3.43925
3.42274
3.40695
3.39203
3.37817
3.3656
3.35458
3.34541
3.3384
3.33394
3.33243
3.33429
3.33997
3.34991
3.36453
3.38423
3.40931
3.43995
3.4762
3.51793
3.56477
3.61615
3.67121
3.72886
3.78776
3.84639
3.90309
3.95615
4.00392
4.04493
4.07794
4.10209
4.11687
4.12214
4.11813
4.10532
4.08444
4.05634
4.02193
3.98218
3.93799
3.89025
3.83976
3.78724
3.73332
3.67857
3.62344
3.56833
3.51356
3.4594
3.40608
3.35378
3.30265
3.25284
3.20442
3.15746
3.112
3.06803
3.02549
2.98429
2.94427
2.9052
2.8668
2.82875
2.79067
2.75222
2.71306
2.67293
2.63147
2.58876
2.54251
2.50111
2.41884
4.00899
3.98332
3.9577
3.93214
3.90666
3.88128
3.85602
3.83093
3.80604
3.78138
3.757
3.73293
3.7092
3.68586
3.6629
3.64036
3.61824
3.59653
3.57526
3.55439
3.53395
3.51392
3.49431
3.47513
3.45641
3.43818
3.42051
3.40345
3.38712
3.37163
3.35713
3.34378
3.33179
3.32139
3.31283
3.30641
3.30244
3.30126
3.30323
3.30871
3.31806
3.33162
3.34969
3.3725
3.40018
3.43276
3.47009
3.51185
3.55753
3.60639
3.6575
3.70969
3.76165
3.81192
3.859
3.90144
3.93788
3.96722
3.9886
4.00152
4.00578
4.0015
3.98906
3.96904
3.94218
3.90929
3.8712
3.82876
3.78276
3.73396
3.68303
3.63057
3.57711
3.52309
3.4689
3.41484
3.36117
3.30812
3.25586
3.20453
3.15426
3.10515
3.05725
3.01061
2.96524
2.92114
2.87825
2.83648
2.7957
2.75575
2.71643
2.67754
2.63891
2.60039
2.56186
2.52312
2.4843
2.44337
2.40748
2.33709
4.00511
3.97901
3.95294
3.9269
3.90091
3.87499
3.84917
3.82347
3.79793
3.77258
3.74746
3.7226
3.69804
3.67381
3.64995
3.62646
3.60338
3.58072
3.55849
3.5367
3.51537
3.49451
3.47413
3.45426
3.43494
3.4162
3.3981
3.38072
3.36414
3.34848
3.33386
3.32045
3.30841
3.29796
3.28931
3.28273
3.27848
3.27685
3.27815
3.28267
3.29072
3.30257
3.31846
3.33858
3.36301
3.39177
3.42471
3.46155
3.50184
3.54493
3.59001
3.63607
3.68195
3.72639
3.76806
3.80564
3.83793
3.8639
3.88273
3.89391
3.89719
3.89263
3.88049
3.86125
3.83553
3.80403
3.76751
3.72672
3.68239
3.63523
3.58586
3.53485
3.48271
3.42985
3.37665
3.32342
3.2704
3.2178
3.16581
3.11455
3.06414
3.01467
2.96622
2.91882
2.8725
2.82726
2.7831
2.73997
2.69781
2.65654
2.61608
2.57635
2.53732
2.49901
2.46149
2.4247
2.38886
2.35221
2.32083
2.26064
4.0036
3.97732
3.95104
3.92479
3.89856
3.87239
3.84629
3.82028
3.7944
3.76867
3.74313
3.71781
3.69275
3.66797
3.64351
3.6194
3.59566
3.57231
3.54938
3.52688
3.50484
3.48328
3.46222
3.44171
3.42176
3.40245
3.38381
3.36593
3.34888
3.33278
3.31775
3.30392
3.29145
3.28054
3.27137
3.26417
3.25917
3.25663
3.25681
3.25995
3.26632
3.27614
3.2896
3.30686
3.32799
3.35296
3.38166
3.41383
3.44907
3.48683
3.52637
3.56683
3.60718
3.64632
3.68305
3.71621
3.7447
3.76756
3.78402
3.79356
3.79591
3.79103
3.77913
3.76058
3.73589
3.70569
3.67063
3.6314
3.58868
3.54309
3.49524
3.44566
3.39484
3.34317
3.29103
3.2387
3.18644
3.13445
3.08289
3.03191
2.98162
2.9321
2.88341
2.83561
2.78873
2.74277
2.69776
2.65367
2.61049
2.5682
2.5268
2.4863
2.44681
2.40847
2.37151
2.33605
2.3024
2.26909
2.2413
2.18969
4.00297
3.97662
3.95026
3.92391
3.89759
3.8713
3.84507
3.81891
3.79286
3.76693
3.74116
3.71558
3.69021
3.66509
3.64025
3.61572
3.59152
3.56768
3.54423
3.5212
3.4986
3.47647
3.45485
3.43376
3.41324
3.39336
3.37417
3.35573
3.33813
3.32148
3.30587
3.29145
3.27836
3.26675
3.25682
3.24876
3.24277
3.23908
3.2379
3.23946
3.24398
3.25164
3.26261
3.277
3.29487
3.31621
3.34089
3.36868
3.39923
3.43206
3.46653
3.50186
3.53717
3.57147
3.6037
3.63282
3.65781
3.67779
3.69205
3.70004
3.70148
3.69627
3.68454
3.66659
3.64284
3.61383
3.58014
3.54238
3.50117
3.4571
3.41072
3.36255
3.31303
3.26258
3.21152
3.16016
3.10873
3.05745
3.00648
2.95594
2.90596
2.85662
2.80797
2.76007
2.71295
2.66664
2.62114
2.57647
2.53264
2.48966
2.44758
2.40649
2.36657
2.32809
2.2914
2.2568
2.2247
2.19391
2.16891
2.12436
4.00264
3.97625
3.94986
3.92348
3.89711
3.87077
3.84448
3.81825
3.7921
3.76606
3.74015
3.71441
3.68884
3.6635
3.6384
3.61357
3.58905
3.56485
3.54101
3.51755
3.49452
3.47193
3.44982
3.42823
3.4072
3.38679
3.36706
3.34807
3.3299
3.31265
3.29642
3.28134
3.26753
3.25514
3.24434
3.23531
3.22822
3.22326
3.22065
3.22056
3.22318
3.22867
3.23718
3.24879
3.26356
3.28144
3.30235
3.32606
3.35228
3.38057
3.41038
3.44103
3.47173
3.5016
3.52971
3.55511
3.57688
3.5942
3.60639
3.61291
3.61346
3.6079
3.5963
3.57887
3.55597
3.52804
3.49562
3.45924
3.41947
3.37685
3.3319
3.28509
3.23687
3.18762
3.13767
3.08731
3.03679
2.98629
2.93599
2.88604
2.83652
2.78753
2.73913
2.69137
2.64429
2.59791
2.55225
2.50733
2.46318
2.41983
2.37735
2.33589
2.29567
2.25704
2.22048
2.18639
2.15535
2.12642
2.10349
2.06464
4.0024
3.976
3.94959
3.92318
3.89679
3.87042
3.84409
3.81782
3.79161
3.7655
3.7395
3.71364
3.68794
3.66243
3.63713
3.61208
3.5873
3.56282
3.53867
3.51487
3.49147
3.46848
3.44595
3.42393
3.40244
3.38155
3.36131
3.34179
3.32307
3.30523
3.28837
3.2726
3.25805
3.24486
3.23316
3.22312
3.2149
3.20867
3.20461
3.20288
3.20364
3.20703
3.21317
3.22214
3.23396
3.24861
3.266
3.28593
3.30815
3.33226
3.35779
3.38415
3.41062
3.43644
3.46078
3.48276
3.50155
3.5164
3.52665
3.53178
3.53146
3.52554
3.514
3.49702
3.47488
3.44796
3.41671
3.38163
3.34321
3.30198
3.2584
3.21293
3.16598
3.11792
3.06909
3.01976
2.97016
2.92051
2.87097
2.82167
2.77273
2.72423
2.67625
2.62881
2.58198
2.53576
2.4902
2.44531
2.40112
2.35769
2.31509
2.27348
2.23312
2.19442
2.15792
2.12416
2.09381
2.06621
2.04478
2.01043
4.00219
3.97577
3.94935
3.92293
3.89652
3.87013
3.84377
3.81746
3.79121
3.76503
3.73896
3.71301
3.6872
3.66155
3.6361
3.61086
3.58587
3.56115
3.53673
3.51264
3.48892
3.46559
3.44269
3.42027
3.39836
3.37702
3.35631
3.33629
3.31703
3.29862
3.28115
3.26472
3.24944
3.23544
3.22286
3.21183
3.2025
3.19503
3.18956
3.18624
3.18522
3.18661
3.1905
3.19697
3.20603
3.21767
3.23178
3.24822
3.26675
3.28702
3.30862
3.33103
3.35364
3.37574
3.3966
3.41543
3.43147
3.44402
3.45244
3.45626
3.4551
3.44879
3.43729
3.42069
3.39923
3.37323
3.34307
3.3092
3.27207
3.23215
3.18989
3.14571
3.10001
3.05314
3.00542
2.95712
2.90849
2.85972
2.81099
2.76242
2.71414
2.66624
2.61877
2.5718
2.52537
2.4795
2.43423
2.38958
2.34559
2.30231
2.25982
2.21829
2.17797
2.13931
2.10289
2.06935
2.03946
2.01277
1.99239
1.96154
4.00198
3.97556
3.94912
3.92268
3.89625
3.86984
3.84346
3.81711
3.79082
3.76459
3.73845
3.71242
3.68651
3.66075
3.63516
3.60976
3.58458
3.55965
3.535
3.51065
3.48664
3.463
3.43976
3.41698
3.39468
3.37293
3.35178
3.33129
3.31152
3.29256
3.2745
3.25742
3.24145
3.22667
3.21323
3.20125
3.19085
3.18218
3.17537
3.17055
3.16784
3.16733
3.16911
3.17324
3.17973
3.18856
3.19965
3.21286
3.22797
3.24471
3.2627
3.28149
3.30053
3.31922
3.33688
3.3528
3.3663
3.3767
3.38342
3.38598
3.38402
3.37732
3.36581
3.34955
3.3287
3.30353
3.27439
3.24165
3.20574
3.16707
3.12608
3.08315
3.03867
2.99297
2.94637
2.89912
2.85147
2.80361
2.75572
2.70794
2.66038
2.61313
2.56628
2.51987
2.47395
2.42856
2.38373
2.33949
2.29586
2.25292
2.21073
2.16945
2.12934
2.09084
2.05456
2.02121
1.99161
1.96556
1.94589
1.9177
4.00178
3.97534
3.94889
3.92244
3.89599
3.86956
3.84314
3.81676
3.79043
3.76416
3.73796
3.71185
3.68585
3.65998
3.63426
3.60872
3.58337
3.55825
3.53339
3.5088
3.48453
3.4606
3.43706
3.41394
3.39129
3.36915
3.34758
3.32664
3.3064
3.28692
3.26829
3.25061
3.23396
3.21845
3.20419
3.19129
3.17989
3.17008
3.162
3.15576
3.15145
3.14916
3.14897
3.15092
3.15502
3.16124
3.16952
3.17974
3.19171
3.20519
3.21985
3.23531
3.25108
3.26662
3.28133
3.29457
3.30571
3.31413
3.31926
3.32063
3.3179
3.31081
3.29927
3.28329
3.26299
3.23858
3.21037
3.1787
3.14394
3.10647
3.0667
3.025
2.98171
2.93717
2.89168
2.84549
2.79883
2.75192
2.7049
2.65794
2.61115
2.56463
2.51845
2.47267
2.42735
2.38252
2.33823
2.2945
2.25137
2.20889
2.16713
2.12625
2.08648
2.04825
2.01219
1.97901
1.94963
1.92401
1.90481
1.87862
4.00158
3.97513
3.94866
3.92219
3.89573
3.86927
3.84283
3.81641
3.79004
3.76372
3.73746
3.71128
3.6852
3.65923
3.6334
3.60772
3.58222
3.55693
3.53187
3.50707
3.48256
3.45837
3.43454
3.41111
3.38812
3.36562
3.34366
3.3223
3.30161
3.28164
3.26248
3.24421
3.22693
3.21071
3.19568
3.18193
3.16956
3.15869
3.14941
3.14183
3.13602
3.13208
3.13004
3.12996
3.13183
3.13563
3.14131
3.14876
3.15783
3.1683
3.1799
3.19229
3.20505
3.21769
3.22969
3.24046
3.24942
3.25599
3.25964
3.25991
3.25644
3.24898
3.23738
3.22164
3.20182
3.17812
3.15077
3.12009
3.08642
3.0501
3.01152
2.97101
2.92891
2.88553
2.84116
2.79604
2.75041
2.70446
2.65836
2.61226
2.56628
2.52052
2.47506
2.42997
2.3853
2.3411
2.29741
2.25426
2.2117
2.16977
2.12855
2.08815
2.04882
2.01095
1.97515
1.94217
1.91295
1.88762
1.8687
1.844
4.00139
3.97492
3.94844
3.92195
3.89546
3.86898
3.84251
3.81607
3.78965
3.76328
3.73697
3.71072
3.68456
3.6585
3.63256
3.60676
3.58112
3.55567
3.53043
3.50543
3.4807
3.45627
3.43218
3.40846
3.38516
3.36232
3.34
3.31824
3.29712
3.27669
3.25703
3.23821
3.22032
3.20345
3.18769
3.17312
3.15986
3.14798
3.13758
3.12874
3.12155
3.11605
3.11229
3.11032
3.11012
3.11168
3.11495
3.11983
3.12621
3.13391
3.14268
3.15224
3.16222
3.1722
3.18171
3.19021
3.19717
3.20204
3.20432
3.20357
3.1994
3.19156
3.17989
3.16433
3.14494
3.12186
3.09531
3.06556
3.03292
2.99772
2.9603
2.92098
2.88007
2.83788
2.79465
2.75065