/*--------------------------------*- C++ -*----------------------------------*\
| =========                 |                                                 |
| \\      /  F ield         | OpenFOAM: The Open Source CFD Toolbox           |
|  \\    /   O peration     | Version:  2.1.1                                 |
|   \\  /    A nd           | Web:      www.OpenFOAM.org                      |
|    \\/     M anipulation  |                                                 |
\*---------------------------------------------------------------------------*/
FoamFile
{
    version     2.0;
    format      ascii;
    class       volScalarField;
    location    "0.085";
    object      k;
}
// * * * * * * * * * * * * * * * * * * * * * * * * * * * * * * * * * * * * * //

dimensions      [0 2 -2 0 0 0 0];

internalField   nonuniform List<scalar> 
6820
(
0.288909
0.351398
0.415005
0.477466
0.53686
0.591556
0.640369
0.682625
0.718117
0.747017
0.769771
0.786994
0.799386
0.807665
0.812522
0.81459
0.814431
0.812532
0.809304
0.805088
0.800163
0.794755
0.789043
0.783167
0.777236
0.771332
0.765514
0.759836
0.754262
0.749108
0.742919
0.742659
0.714714
0.265532
0.269396
0.270523
0.271341
0.272559
0.274216
0.276227
0.27848
0.280863
0.283291
0.285709
0.288086
0.290413
0.292695
0.294947
0.297188
0.299439
0.301718
0.304042
0.306425
0.308876
0.311404
0.314012
0.316703
0.319478
0.32234
0.325291
0.328341
0.331505
0.334841
0.338379
0.342564
0.347066
0.262038
0.264253
0.263596
0.261557
0.259
0.256318
0.253627
0.250938
0.24824
0.245525
0.242795
0.240062
0.237346
0.23467
0.232054
0.229521
0.227088
0.224773
0.222587
0.22054
0.218638
0.216885
0.215284
0.213833
0.212532
0.211378
0.210368
0.2095
0.20877
0.208182
0.207722
0.207422
0.207222
0.259885
0.260272
0.259797
0.258535
0.256829
0.254891
0.252833
0.25071
0.248547
0.246358
0.244152
0.241935
0.239713
0.237494
0.235286
0.233095
0.23093
0.228798
0.226704
0.224654
0.222654
0.220708
0.218819
0.21699
0.215222
0.213517
0.211875
0.210296
0.20878
0.207326
0.205931
0.204598
0.203314
0.259299
0.258404
0.2576
0.256567
0.255295
0.25385
0.252292
0.250662
0.248984
0.247277
0.245551
0.243815
0.242074
0.240335
0.238601
0.236876
0.235165
0.233471
0.231796
0.230145
0.228519
0.226921
0.225353
0.223816
0.222312
0.220841
0.219406
0.218005
0.216639
0.215309
0.214014
0.212754
0.21153
0.259224
0.257848
0.256623
0.255437
0.254227
0.25297
0.251663
0.250313
0.248929
0.247523
0.246101
0.24467
0.243237
0.241805
0.240377
0.238957
0.237548
0.236151
0.234769
0.233404
0.232057
0.230729
0.229422
0.228136
0.226874
0.225634
0.224418
0.223226
0.222059
0.220916
0.219799
0.218707
0.21764
0.259217
0.257715
0.256309
0.25498
0.253698
0.252442
0.251196
0.249951
0.248704
0.247455
0.246205
0.244955
0.24371
0.242469
0.241236
0.240012
0.2388
0.237599
0.236412
0.23524
0.234083
0.232943
0.23182
0.230714
0.229627
0.228559
0.227509
0.226479
0.225468
0.224477
0.223506
0.222555
0.221624
0.259218
0.25769
0.256225
0.254822
0.253477
0.252181
0.250924
0.249696
0.248492
0.247306
0.246137
0.244981
0.243839
0.24271
0.241595
0.240493
0.239405
0.238331
0.237272
0.236228
0.2352
0.234188
0.233192
0.232212
0.231249
0.230303
0.229374
0.228461
0.227566
0.226688
0.225827
0.224983
0.224157
0.259218
0.257686
0.256207
0.25478
0.253405
0.25208
0.250799
0.24956
0.248357
0.247185
0.246042
0.244925
0.24383
0.242757
0.241705
0.240671
0.239656
0.238659
0.23768
0.236718
0.235773
0.234845
0.233934
0.23304
0.232162
0.231301
0.230456
0.229627
0.228815
0.228018
0.227238
0.226474
0.225725
0.259218
0.257686
0.256203
0.254769
0.253384
0.252045
0.250751
0.2495
0.248289
0.247114
0.245975
0.244867
0.243788
0.242738
0.241713
0.240712
0.239735
0.238779
0.237844
0.23693
0.236035
0.235159
0.234301
0.233461
0.232639
0.231834
0.231046
0.230274
0.229519
0.228779
0.228055
0.227347
0.226654
0.259218
0.257686
0.256202
0.254767
0.253378
0.252035
0.250735
0.249477
0.24826
0.24708
0.245938
0.244829
0.243754
0.242709
0.241693
0.240705
0.239743
0.238806
0.237893
0.237003
0.236135
0.235287
0.23446
0.233652
0.232863
0.232092
0.231339
0.230604
0.229885
0.229182
0.228496
0.227825
0.22717
0.259218
0.257685
0.256201
0.254766
0.253376
0.252031
0.250729
0.249469
0.248248
0.247066
0.24592
0.24481
0.243733
0.242688
0.241674
0.240689
0.239732
0.238802
0.237898
0.237018
0.236162
0.235328
0.234515
0.233724
0.232953
0.232201
0.231468
0.230753
0.230055
0.229375
0.228712
0.228064
0.227432
0.259218
0.257685
0.256201
0.254765
0.253375
0.25203
0.250727
0.249465
0.248243
0.24706
0.245912
0.2448
0.243722
0.242676
0.241661
0.240677
0.239721
0.238792
0.23789
0.237014
0.236162
0.235333
0.234527
0.233743
0.23298
0.232237
0.231514
0.23081
0.230124
0.229455
0.228804
0.22817
0.227551
0.259218
0.257685
0.256201
0.254764
0.253374
0.252028
0.250725
0.249463
0.248241
0.247056
0.245908
0.244795
0.243716
0.242669
0.241654
0.240669
0.239712
0.238784
0.237882
0.237006
0.236155
0.235328
0.234525
0.233743
0.232983
0.232244
0.231525
0.230825
0.230144
0.229481
0.228836
0.228208
0.227596
0.259218
0.257685
0.2562
0.254764
0.253374
0.252028
0.250724
0.249462
0.248239
0.247054
0.245906
0.244792
0.243712
0.242665
0.241649
0.240663
0.239706
0.238777
0.237875
0.236999
0.236149
0.235322
0.234518
0.233738
0.232978
0.23224
0.231523
0.230825
0.230146
0.229485
0.228843
0.228217
0.227609
0.259218
0.257685
0.2562
0.254764
0.253373
0.252027
0.250723
0.249461
0.248238
0.247052
0.245903
0.244789
0.243709
0.242662
0.241645
0.240659
0.239702
0.238772
0.23787
0.236994
0.236143
0.235316
0.234512
0.233731
0.232972
0.232235
0.231517
0.23082
0.230141
0.229481
0.228839
0.228215
0.227607
0.259218
0.257685
0.2562
0.254763
0.253373
0.252026
0.250722
0.24946
0.248236
0.247051
0.245901
0.244787
0.243707
0.242659
0.241642
0.240656
0.239698
0.238768
0.237866
0.236989
0.236138
0.23531
0.234507
0.233726
0.232966
0.232228
0.231511
0.230813
0.230135
0.229475
0.228833
0.228209
0.227602
0.259218
0.257684
0.2562
0.254763
0.253372
0.252026
0.250722
0.249459
0.248235
0.247049
0.2459
0.244785
0.243705
0.242656
0.241639
0.240652
0.239695
0.238765
0.237862
0.236985
0.236133
0.235306
0.234502
0.23372
0.232961
0.232223
0.231505
0.230807
0.230129
0.229469
0.228827
0.228202
0.227595
0.259218
0.257684
0.2562
0.254763
0.253372
0.252025
0.250721
0.249458
0.248234
0.247048
0.245898
0.244784
0.243703
0.242654
0.241637
0.24065
0.239692
0.238761
0.237858
0.236981
0.236129
0.235301
0.234497
0.233716
0.232956
0.232217
0.2315
0.230801
0.230123
0.229463
0.22882
0.228196
0.227588
0.259218
0.257684
0.2562
0.254763
0.253371
0.252025
0.25072
0.249457
0.248233
0.247047
0.245897
0.244782
0.243701
0.242652
0.241635
0.240647
0.239689
0.238758
0.237855
0.236978
0.236125
0.235297
0.234493
0.233711
0.232951
0.232212
0.231494
0.230796
0.230117
0.229457
0.228814
0.228189
0.227582
0.259218
0.257684
0.256199
0.254762
0.253371
0.252024
0.25072
0.249456
0.248232
0.247046
0.245896
0.244781
0.243699
0.24265
0.241632
0.240645
0.239686
0.238756
0.237852
0.236974
0.236122
0.235294
0.234489
0.233707
0.232947
0.232208
0.231489
0.230791
0.230111
0.229451
0.228808
0.228183
0.227575
0.259218
0.257684
0.256199
0.254762
0.253371
0.252024
0.250719
0.249456
0.248231
0.247045
0.245895
0.244779
0.243698
0.242649
0.241631
0.240643
0.239684
0.238753
0.237849
0.236971
0.236119
0.23529
0.234485
0.233703
0.232942
0.232203
0.231485
0.230786
0.230106
0.229445
0.228802
0.228177
0.227568
0.259218
0.257684
0.256199
0.254762
0.253371
0.252024
0.250719
0.249455
0.248231
0.247044
0.245894
0.244778
0.243696
0.242647
0.241629
0.240641
0.239682
0.238751
0.237847
0.236968
0.236115
0.235287
0.234482
0.233699
0.232938
0.232199
0.23148
0.230781
0.230101
0.22944
0.228797
0.228171
0.227562
0.259218
0.257684
0.256199
0.254762
0.253371
0.252023
0.250719
0.249455
0.24823
0.247043
0.245893
0.244777
0.243695
0.242646
0.241627
0.240639
0.23968
0.238749
0.237844
0.236966
0.236113
0.235284
0.234478
0.233696
0.232935
0.232195
0.231476
0.230776
0.230096
0.229435
0.228791
0.228165
0.227556
0.259218
0.257684
0.256199
0.254762
0.25337
0.252023
0.250718
0.249454
0.24823
0.247043
0.245892
0.244776
0.243694
0.242644
0.241626
0.240637
0.239678
0.238747
0.237842
0.236963
0.23611
0.235281
0.234475
0.233692
0.232931
0.232191
0.231472
0.230772
0.230092
0.22943
0.228786
0.22816
0.22755
0.259218
0.257684
0.256199
0.254762
0.25337
0.252023
0.250718
0.249454
0.248229
0.247042
0.245891
0.244776
0.243693
0.242643
0.241625
0.240636
0.239677
0.238745
0.23784
0.236961
0.236108
0.235278
0.234473
0.233689
0.232928
0.232188
0.231468
0.230768
0.230087
0.229425
0.228781
0.228154
0.227544
0.259218
0.257684
0.256199
0.254762
0.25337
0.252023
0.250718
0.249454
0.248229
0.247042
0.245891
0.244775
0.243692
0.242642
0.241624
0.240635
0.239675
0.238743
0.237838
0.236959
0.236106
0.235276
0.23447
0.233686
0.232925
0.232184
0.231464
0.230764
0.230083
0.229421
0.228776
0.228149
0.227539
0.259218
0.257684
0.256199
0.254762
0.25337
0.252023
0.250718
0.249454
0.248229
0.247041
0.245891
0.244774
0.243692
0.242642
0.241623
0.240634
0.239674
0.238742
0.237837
0.236958
0.236104
0.235274
0.234468
0.233684
0.232922
0.232181
0.231461
0.230761
0.230079
0.229417
0.228772
0.228144
0.227534
0.259218
0.257684
0.256199
0.254762
0.25337
0.252023
0.250718
0.249453
0.248228
0.247041
0.24589
0.244774
0.243691
0.242641
0.241622
0.240633
0.239673
0.238741
0.237836
0.236956
0.236102
0.235272
0.234466
0.233682
0.23292
0.232179
0.231458
0.230757
0.230076
0.229413
0.228768
0.22814
0.227529
0.259218
0.257684
0.256199
0.254762
0.25337
0.252023
0.250718
0.249454
0.248229
0.247042
0.245891
0.244774
0.243692
0.242641
0.241622
0.240633
0.239673
0.238741
0.237835
0.236956
0.236102
0.235272
0.234465
0.233681
0.232918
0.232177
0.231456
0.230755
0.230074
0.22941
0.228765
0.228137
0.227525
0.259218
0.257684
0.256199
0.254762
0.25337
0.252023
0.250718
0.249453
0.248228
0.247041
0.24589
0.244774
0.243691
0.242641
0.241622
0.240633
0.239673
0.23874
0.237835
0.236955
0.236101
0.235271
0.234464
0.23368
0.232917
0.232176
0.231455
0.230754
0.230072
0.229408
0.228762
0.228134
0.227522
0.259218
0.257684
0.256199
0.254762
0.253371
0.252024
0.25072
0.249456
0.248231
0.247044
0.245894
0.244778
0.243695
0.242645
0.241626
0.240636
0.239676
0.238744
0.237838
0.236959
0.236104
0.235274
0.234467
0.233682
0.232919
0.232178
0.231456
0.230755
0.230072
0.229408
0.228762
0.228133
0.227521
0.259218
0.257685
0.2562
0.254764
0.253373
0.252026
0.250721
0.249457
0.248232
0.247046
0.245895
0.244779
0.243697
0.242647
0.241628
0.240639
0.239679
0.238747
0.237841
0.236962
0.236107
0.235277
0.234469
0.233685
0.232922
0.232179
0.231458
0.230755
0.230072
0.229407
0.22876
0.22813
0.227517
0.259218
0.257685
0.256201
0.254766
0.253378
0.252033
0.250731
0.249469
0.248246
0.24706
0.24591
0.244795
0.243713
0.242663
0.241644
0.240654
0.239693
0.23876
0.237854
0.236973
0.236117
0.235285
0.234476
0.233689
0.232924
0.232179
0.231455
0.23075
0.230064
0.229396
0.228745
0.228112
0.227495
0.259219
0.257689
0.25621
0.254777
0.25339
0.252046
0.250743
0.249482
0.248259
0.247074
0.245924
0.244809
0.243726
0.242676
0.241655
0.240664
0.239701
0.238765
0.237855
0.23697
0.236109
0.235271
0.234456
0.233662
0.23289
0.232137
0.231405
0.230691
0.229995
0.229318
0.228657
0.228013
0.227385
0.25922
0.257694
0.256221
0.254799
0.253423
0.252089
0.250795
0.249539
0.248318
0.247131
0.245978
0.244857
0.243767
0.242706
0.241674
0.240669
0.239691
0.238739
0.237811
0.236907
0.236026
0.235167
0.23433
0.233514
0.232719
0.231942
0.231185
0.230447
0.229726
0.229023
0.228337
0.227667
0.227013
0.259229
0.257738
0.256292
0.254882
0.253508
0.252172
0.250871
0.249603
0.248368
0.247162
0.245985
0.244837
0.243716
0.242621
0.241552
0.240508
0.239489
0.238494
0.237523
0.236574
0.235647
0.234742
0.233858
0.232995
0.232151
0.231327
0.230522
0.229736
0.228967
0.228216
0.227482
0.226765
0.226064
0.259265
0.257822
0.256453
0.255125
0.253804
0.252483
0.251164
0.249854
0.248561
0.247291
0.246045
0.244828
0.243639
0.24248
0.241349
0.240247
0.239173
0.238125
0.237103
0.236106
0.235133
0.234183
0.233256
0.232351
0.231467
0.230604
0.22976
0.228936
0.228131
0.227344
0.226575
0.225823
0.225089
0.259599
0.258632
0.257578
0.256541
0.255587
0.254713
0.253905
0.25315
0.252443
0.251781
0.251163
0.250587
0.250054
0.249562
0.249111
0.248698
0.248323
0.247983
0.247678
0.247404
0.247162
0.246948
0.246761
0.2466
0.246463
0.24635
0.246258
0.246186
0.246134
0.246101
0.246085
0.246085
0.246102
0.266719
0.280569
0.294241
0.307622
0.320668
0.333362
0.345692
0.357649
0.369224
0.380412
0.391211
0.401619
0.411638
0.421271
0.430522
0.439397
0.447904
0.45605
0.463845
0.471298
0.478418
0.485216
0.491704
0.497891
0.503788
0.509406
0.514757
0.519849
0.524695
0.529305
0.533687
0.537852
0.541814
0.8392
1.01283
1.20995
1.4326
1.67019
1.9023
2.10724
2.26962
2.38437
2.45627
2.49626
2.51669
2.52765
2.53536
2.54261
2.5503
2.55909
2.57006
2.58468
2.60442
2.63022
2.66233
2.70038
2.74349
2.79048
2.83988
2.89001
2.93895
2.98459
3.02466
3.05677
3.07848
3.08728
3.08065
3.05604
3.01092
2.94276
2.84915
2.72783
2.57693
2.39517
2.18233
1.93989
1.67204
1.38708
1.09914
0.829146
0.602451
0.439781
0.344648
0.301179
0.287689
0.288703
0.295968
0.305424
0.315044
0.32381
0.331243
0.337182
0.341652
0.344792
0.346795
0.347877
0.348247
0.348095
0.347587
0.346864
0.346042
0.345214
0.344453
0.343809
0.343315
0.342983
0.342812
0.34279
0.342896
0.343104
0.343389
0.343723
0.344082
0.344439
0.344769
0.345045
0.345239
0.345315
0.345235
0.344948
0.344395
0.343502
0.342183
0.340337
0.337853
0.334607
0.330472
0.325325
0.319048
0.311595
0.302658
0.293676
0.276071
0.355743
0.369866
0.392781
0.429752
0.486838
0.57022
0.684631
0.831362
1.00655
1.20064
1.39964
1.58809
1.75294
1.88669
1.98799
2.06066
2.11245
2.15154
2.1843
2.21473
2.24489
2.27574
2.30773
2.34108
2.37575
2.41136
2.44707
2.48155
2.51306
2.53955
2.55875
2.56826
2.56562
2.54834
2.51394
2.46002
2.3843
2.28474
2.15972
2.00826
1.83048
1.6281
1.40538
1.17012
0.934732
0.716431
0.534603
0.403885
0.325862
0.28852
0.275782
0.275784
0.281857
0.290506
0.299837
0.308786
0.316763
0.323475
0.32883
0.332863
0.335694
0.33749
0.338434
0.338707
0.33848
0.337899
0.337094
0.336172
0.335224
0.33432
0.333514
0.332844
0.332331
0.331982
0.331792
0.331747
0.331829
0.332016
0.332282
0.332604
0.332955
0.333309
0.333639
0.333913
0.334098
0.334151
0.334025
0.33366
0.332985
0.331915
0.330354
0.328191
0.325304
0.321568
0.316861
0.311064
0.304127
0.295754
0.287318
0.270653
0.206882
0.206705
0.207251
0.209077
0.212933
0.219998
0.232144
0.252106
0.283403
0.32992
0.395107
0.480959
0.587112
0.710343
0.845298
0.985137
1.12175
1.24744
1.35727
1.4497
1.52604
1.58933
1.64306
1.69029
1.73315
1.77279
1.80947
1.84277
1.87169
1.89485
1.91053
1.91682
1.9116
1.89274
1.85811
1.8057
1.73381
1.64118
1.52729
1.39268
1.2395
1.07205
0.897482
0.726111
0.570778
0.444233
0.354412
0.300371
0.273603
0.263982
0.264017
0.269212
0.27696
0.285698
0.29445
0.302604
0.309793
0.315828
0.320648
0.324289
0.326849
0.328468
0.3293
0.329502
0.329223
0.328594
0.327731
0.326736
0.325691
0.324667
0.323718
0.322886
0.322198
0.321667
0.321297
0.321082
0.32101
0.321062
0.321218
0.321457
0.321753
0.322081
0.322413
0.322717
0.32296
0.3231
0.32309
0.322873
0.322379
0.321528
0.320225
0.318363
0.315824
0.312483
0.308219
0.302913
0.296514
0.288731
0.280869
0.265196
0.201891
0.20038
0.19896
0.197613
0.196362
0.19527
0.194462
0.194179
0.19488
0.197329
0.202622
0.212099
0.22722
0.249421
0.279959
0.319694
0.368839
0.427815
0.495475
0.569399
0.646422
0.723259
0.797063
0.86579
0.928284
0.984135
1.03337
1.07613
1.11238
1.14175
1.16347
1.17641
1.17918
1.17027
1.1482
1.11172
1.06004
0.993044
0.911595
0.817881
0.715709
0.610683
0.509971
0.421318
0.351102
0.302049
0.272359
0.257363
0.252191
0.253198
0.257971
0.264908
0.272901
0.281171
0.289166
0.296507
0.302949
0.308359
0.312694
0.315981
0.3183
0.319763
0.320503
0.320651
0.320337
0.319679
0.31878
0.317733
0.316616
0.315494
0.314424
0.313448
0.312597
0.31189
0.311338
0.310941
0.310694
0.310584
0.310597
0.310713
0.310911
0.311166
0.311451
0.311736
0.311988
0.312168
0.312228
0.312114
0.311761
0.311091
0.310015
0.308428
0.306216
0.303257
0.299431
0.294619
0.288765
0.281589
0.27432
0.259681
0.21015
0.208612
0.207088
0.20557
0.204055
0.202545
0.201043
0.199559
0.198121
0.1968
0.195733
0.195142
0.19533
0.196672
0.199569
0.204401
0.211551
0.221021
0.23311
0.248188
0.266534
0.288229
0.313092
0.340662
0.370235
0.400934
0.43179
0.461804
0.489975
0.515295
0.536743
0.553269
0.563811
0.567357
0.56304
0.550283
0.528976
0.499653
0.463652
0.423185
0.381248
0.341268
0.306462
0.279053
0.259762
0.24793
0.242181
0.241064
0.243346
0.24803
0.254313
0.261533
0.269151
0.27673
0.28393
0.290497
0.296255
0.301101
0.304999
0.307969
0.310071
0.311398
0.312058
0.312165
0.31183
0.311156
0.310237
0.309157
0.307987
0.306791
0.305621
0.304521
0.303523
0.302652
0.301923
0.301342
0.30091
0.300622
0.300466
0.300428
0.30049
0.300631
0.300826
0.301047
0.301261
0.301432
0.301516
0.301461
0.301206
0.300678
0.299791
0.298447
0.296536
0.293939
0.290538
0.286214
0.28091
0.27435
0.267687
0.254113
0.216428
0.215051
0.213667
0.212279
0.210882
0.209475
0.208059
0.206636
0.205213
0.203797
0.202406
0.201073
0.199861
0.198858
0.19818
0.197946
0.198298
0.199199
0.200666
0.202741
0.205475
0.20892
0.213118
0.218094
0.22384
0.230309
0.237405
0.244977
0.25281
0.260625
0.268073
0.274751
0.280209
0.283994
0.285697
0.285025
0.28188
0.276429
0.269136
0.260731
0.252107
0.244161
0.23763
0.232994
0.23046
0.230025
0.231539
0.234764
0.239399
0.245117
0.251581
0.258462
0.265455
0.272288
0.278727
0.284586
0.289731
0.294076
0.297587
0.300273
0.302183
0.303388
0.30398
0.304053
0.303705
0.303025
0.302098
0.301
0.299795
0.298544
0.297295
0.296091
0.294967
0.293948
0.293053
0.292294
0.291676
0.2912
0.29086
0.290646
0.290545
0.290538
0.290605
0.29072
0.290854
0.290972
0.291035
0.290994
0.290792
0.290362
0.289625
0.288487
0.286845
0.284584
0.281589
0.277742
0.27298
0.267039
0.260988
0.248499
0.220563
0.219354
0.218131
0.216896
0.215649
0.214391
0.213124
0.211851
0.210573
0.209294
0.20802
0.206757
0.20552
0.204329
0.203217
0.202223
0.201395
0.200758
0.200328
0.200114
0.200125
0.200363
0.200833
0.201533
0.202459
0.203605
0.204955
0.206487
0.208167
0.209952
0.211783
0.213589
0.215287
0.216786
0.218002
0.218862
0.219331
0.21942
0.219204
0.218822
0.218464
0.218348
0.218695
0.219697
0.221496
0.224174
0.227742
0.232149
0.237284
0.242997
0.249103
0.255408
0.261711
0.26782
0.273563
0.278793
0.283397
0.287301
0.29047
0.292907
0.294645
0.295744
0.296275
0.296321
0.295965
0.295286
0.29436
0.293254
0.292029
0.290738
0.28943
0.288143
0.286912
0.285764
0.28472
0.283795
0.282998
0.282335
0.281804
0.281401
0.281117
0.280938
0.280847
0.280822
0.280837
0.280862
0.280861
0.28079
0.280597
0.280222
0.279592
0.278621
0.277211
0.275254
0.272638
0.269247
0.265016
0.259687
0.254246
0.242852
0.223214
0.222137
0.221046
0.219941
0.218823
0.217695
0.216558
0.215416
0.214271
0.213128
0.21199
0.210859
0.209741
0.20864
0.207567
0.206532
0.205552
0.204643
0.203819
0.203091
0.202467
0.201954
0.201556
0.201273
0.201106
0.201053
0.201113
0.20128
0.201551
0.201917
0.20237
0.202899
0.203492
0.204138
0.204827
0.205552
0.206317
0.207137
0.208042
0.209081
0.210322
0.211843
0.21373
0.216064
0.218911
0.222311
0.226269
0.230756
0.235706
0.241024
0.246587
0.252258
0.257891
0.263338
0.268461
0.273137
0.277269
0.280787
0.283658
0.285875
0.287463
0.288466
0.288945
0.288969
0.288609
0.287937
0.287017
0.285912
0.284677
0.283361
0.282009
0.280658
0.27934
0.278083
0.276908
0.275833
0.274871
0.274028
0.27331
0.272714
0.272238
0.27187
0.271599
0.271407
0.271273
0.27117
0.271067
0.270926
0.270701
0.270337
0.26977
0.268923
0.267704
0.266014
0.263744
0.260782
0.257062
0.252331
0.247491
0.237189
0.22487
0.223894
0.222906
0.221905
0.220893
0.219872
0.218843
0.217809
0.216774
0.21574
0.21471
0.213689
0.212678
0.21168
0.210699
0.20974
0.208808
0.207908
0.207048
0.206235
0.205477
0.204778
0.204145
0.203582
0.203093
0.202682
0.202349
0.2021
0.201935
0.201858
0.201872
0.20198
0.202188
0.2025
0.202925
0.203474
0.204163
0.20501
0.206043
0.207295
0.208803
0.21061
0.21276
0.215293
0.218238
0.221611
0.225406
0.229597
0.234133
0.238941
0.24393
0.248994
0.254014
0.258872
0.26345
0.267643
0.271362
0.274544
0.277153
0.279177
0.280632
0.281553
0.281987
0.281993
0.281633
0.28097
0.280061
0.278964
0.277727
0.276398
0.275015
0.273616
0.27223
0.270883
0.269598
0.268393
0.267281
0.266274
0.265377
0.264594
0.263924
0.263361
0.262899
0.262522
0.262216
0.261957
0.26172
0.261473
0.261176
0.260783
0.260237
0.259469
0.258398
0.256932
0.254971
0.252405
0.249166
0.245011
0.240755
0.231531
0.225863
0.224961
0.224048
0.223125
0.222193
0.221253
0.220306
0.219356
0.218405
0.217455
0.216511
0.215574
0.214648
0.213733
0.212833
0.211949
0.211085
0.210243
0.209426
0.208638
0.207883
0.207165
0.206489
0.20586
0.205281
0.204759
0.204298
0.203903
0.20358
0.203335
0.203177
0.203112
0.203151
0.203303
0.203583
0.204005
0.204587
0.20535
0.206318
0.207516
0.208974
0.210719
0.212781
0.215181
0.217936
0.221051
0.224516
0.228306
0.23238
0.236679
0.241129
0.245641
0.250118
0.254458
0.25856
0.262331
0.26569
0.268578
0.270957
0.272812
0.27415
0.274997
0.275393
0.275385
0.275028
0.274376
0.273482
0.272397
0.271166
0.269831
0.268431
0.266997
0.265559
0.264141
0.262766
0.26145
0.260209
0.259054
0.257994
0.257035
0.256179
0.255425
0.254767
0.254198
0.253705
0.253272
0.252877
0.252495
0.252093
0.251633
0.251066
0.250334
0.249367
0.248081
0.246385
0.244174
0.241381
0.237772
0.234075
0.225901
0.226423
0.225572
0.224713
0.223846
0.222971
0.22209
0.221204
0.220316
0.219427
0.218541
0.217659
0.216785
0.21592
0.215066
0.214226
0.2134
0.212592
0.211802
0.211032
0.210284
0.209561
0.208866
0.208202
0.207572
0.206981
0.206434
0.205936
0.205494
0.205112
0.2048
0.204566
0.20442
0.204372
0.204434
0.20462
0.204947
0.205432
0.206093
0.206953
0.208033
0.209357
0.210947
0.212823
0.215001
0.217491
0.220295
0.223401
0.226789
0.230424
0.234254
0.238219
0.242244
0.246244
0.250133
0.25382
0.257222
0.260265
0.262894
0.26507
0.266774
0.268009
0.268791
0.269153
0.269135
0.268783
0.268145
0.267268
0.266199
0.264978
0.263646
0.262236
0.26078
0.259304
0.257832
0.256384
0.254978
0.253628
0.252346
0.251143
0.250025
0.248996
0.24806
0.247213
0.246451
0.245767
0.245149
0.244581
0.244042
0.243509
0.24295
0.242326
0.241589
0.240681
0.23953
0.238052
0.236153
0.233764
0.230662
0.227492
0.220328
0.226713
0.225896
0.225072
0.224242
0.223407
0.222566
0.221723
0.220877
0.220032
0.219189
0.218352
0.217521
0.216698
0.215887
0.215088
0.214303
0.213534
0.212781
0.212047
0.211332
0.210638
0.209968
0.209324
0.208709
0.208126
0.20758
0.207076
0.206619
0.206216
0.205875
0.205604
0.205413
0.205312
0.205314
0.205433
0.205683
0.206081
0.206644
0.207392
0.208344
0.209519
0.210936
0.212611
0.214556
0.216778
0.219278
0.222047
0.225065
0.228302
0.231717
0.235254
0.238851
0.242435
0.245929
0.249252
0.25233
0.255095
0.257494
0.259489
0.261059
0.2622
0.262924
0.263257
0.263231
0.262885
0.262262
0.261404
0.260354
0.259148
0.257824
0.256413
0.254944
0.253442
0.25193
0.250427
0.248948
0.247509
0.246121
0.244795
0.243538
0.242357
0.241254
0.240231
0.239286
0.238415
0.23761
0.236862
0.236155
0.235471
0.234788
0.234077
0.233299
0.232409
0.231346
0.23004
0.228404
0.226371
0.223733
0.221049
0.214843
0.226848
0.226051
0.225249
0.224442
0.22363
0.222816
0.221999
0.221182
0.220365
0.219551
0.218741
0.217938
0.217144
0.216359
0.215587
0.214827
0.214082
0.213353
0.21264
0.211946
0.211272
0.210618
0.209989
0.209386
0.208811
0.20827
0.207765
0.207303
0.20689
0.206532
0.206237
0.206016
0.205878
0.205834
0.205897
0.206082
0.206403
0.206876
0.207519
0.208348
0.20938
0.210631
0.212114
0.21384
0.215815
0.218039
0.220503
0.22319
0.226076
0.229124
0.232286
0.235509
0.238727
0.241873
0.244875
0.247666
0.250184
0.252377
0.254209
0.255657
0.256713
0.257385
0.257691
0.257658
0.25732
0.256713
0.255876
0.254846
0.253659
0.252347
0.250941
0.249468
0.247951
0.246411
0.244866
0.243332
0.241823
0.240349
0.238921
0.237547
0.236233
0.234984
0.233803
0.23269
0.231643
0.23066
0.229734
0.228855
0.228012
0.227189
0.226367
0.225518
0.224608
0.223591
0.222409
0.220986
0.219259
0.217033
0.21479
0.20948
0.226902
0.226115
0.225325
0.224531
0.223733
0.222934
0.222133
0.221331
0.220531
0.219734
0.218941
0.218155
0.217376
0.216606
0.215848
0.215101
0.214369
0.213651
0.212949
0.212265
0.211599
0.210954
0.210331
0.209732
0.20916
0.208619
0.208112
0.207643
0.20722
0.206848
0.206534
0.206287
0.206116
0.206032
0.206047
0.206173
0.206425
0.206816
0.207362
0.208077
0.208977
0.210076
0.211385
0.212913
0.214665
0.216641
0.218833
0.221229
0.223804
0.226528
0.229361
0.232253
0.235148
0.237986
0.240703
0.243237
0.245533
0.24754
0.249224
0.25056
0.251538
0.252161
0.252442
0.252403
0.252073
0.251483
0.250667
0.249659
0.248493
0.247197
0.245801
0.24433
0.242807
0.241249
0.239676
0.238101
0.236538
0.234997
0.233487
0.232017
0.230593
0.22922
0.227902
0.226641
0.225437
0.22429
0.223196
0.222151
0.221148
0.220178
0.21923
0.218287
0.217327
0.216318
0.215215
0.213954
0.212481
0.210613
0.20876
0.204272
0.226918
0.226136
0.225351
0.224563
0.223773
0.222981
0.222189
0.221396
0.220604
0.219816
0.219031
0.218252
0.21748
0.216717
0.215964
0.215222
0.214493
0.213778
0.213079
0.212396
0.21173
0.211084
0.21046
0.209858
0.209282
0.208736
0.208221
0.207743
0.207307
0.206918
0.206584
0.206311
0.20611
0.205989
0.205958
0.206031
0.206218
0.206533
0.20699
0.207602
0.208382
0.209343
0.210494
0.211843
0.213395
0.21515
0.217101
0.219237
0.221537
0.223974
0.226513
0.229111
0.231719
0.234282
0.236743
0.239046
0.24114
0.242979
0.244526
0.245759
0.246664
0.24724
0.247498
0.247453
0.24713
0.246556
0.245762
0.244777
0.243633
0.242357
0.240975
0.239511
0.237988
0.236422
0.23483
0.233227
0.231624
0.230032
0.228459
0.226913
0.225401
0.223927
0.222495
0.221108
0.219769
0.218476
0.217231
0.216032
0.214877
0.213762
0.212682
0.211632
0.210599
0.209566
0.208501
0.207355
0.206083
0.204516
0.203001
0.199253
0.226918
0.226138
0.225356
0.224571
0.223784
0.222995
0.222206
0.221417
0.220629
0.219844
0.219062
0.218286
0.217515
0.216753
0.215999
0.215256
0.214525
0.213807
0.213103
0.212415
0.211744
0.211092
0.21046
0.20985
0.209265
0.208707
0.208181
0.207689
0.207236
0.206828
0.206472
0.206173
0.20594
0.205782
0.205708
0.205729
0.205856
0.206101
0.206476
0.206993
0.207663
0.208497
0.209505
0.210693
0.212066
0.213622
0.215357
0.217259
0.219313
0.221494
0.22377
0.226105
0.228454
0.230769
0.232998
0.235092
0.237001
0.238684
0.240106
0.241242
0.242077
0.242609
0.242843
0.242792
0.242475
0.241917
0.241144
0.240183
0.239062
0.237807
0.236442
0.234991
0.233472
0.231905
0.230304
0.228683
0.227053
0.225424
0.223804
0.222201
0.22062
0.219066
0.217543
0.216054
0.214601
0.213187
0.211812
0.210478
0.209184
0.207933
0.206725
0.205562
0.204442
0.20336
0.2023
0.201226
0.200103
0.198782
0.197548
0.194454
0.226913
0.226134
0.225352
0.224568
0.223782
0.222995
0.222207
0.221419
0.220632
0.219847
0.219065
0.218287
0.217515
0.21675
0.215993
0.215246
0.214509
0.213784
0.213073
0.212376
0.211696
0.211033
0.210389
0.209767
0.209169
0.208597
0.208054
0.207545
0.207074
0.206644
0.206263
0.205937
0.205672
0.205477
0.20536
0.205332
0.205402
0.20558
0.205878
0.206306
0.206875
0.207594
0.208471
0.209513
0.210722
0.212098
0.213637
0.21533
0.217161
0.21911
0.22115
0.223246
0.22536
0.22745
0.229468
0.23137
0.233109
0.234648
0.235952
0.236996
0.237766
0.238255
0.238465
0.238406
0.238094
0.23755
0.236797
0.235859
0.234762
0.233529
0.232184
0.230748
0.22924
0.227677
0.226074
0.224444
0.222797
0.221144
0.219491
0.217846
0.216214
0.2146
0.213007
0.211438
0.209896
0.208383
0.206901
0.205452
0.20404
0.202668
0.201342
0.200069
0.198856
0.19771
0.196627
0.195588
0.194569
0.193439
0.192433
0.189903
0.226906
0.226127
0.225345
0.224561
0.223775
0.222988
0.2222
0.221412
0.220624
0.219838
0.219055
0.218275
0.2175
0.216731
0.215968
0.215215
0.214471
0.213738
0.213017
0.212309
0.211617
0.210942
0.210285
0.209649
0.209035
0.208446
0.207886
0.207357
0.206864
0.206412
0.206005
0.20565
0.205352
0.205121
0.204962
0.204886
0.204901
0.205016
0.205242
0.205587
0.206062
0.206674
0.207431
0.208337
0.209397
0.210609
0.211969
0.213471
0.2151
0.216838
0.218661
0.22054
0.222441
0.224324
0.226149
0.227873
0.229456
0.230859
0.232053
0.23301
0.233717
0.234163
0.234348
0.23428
0.233972
0.233441
0.232706
0.23179
0.230716
0.229507
0.228183
0.226765
0.225272
0.223718
0.222119
0.220487
0.218832
0.217164
0.215491
0.213817
0.21215
0.210492
0.208848
0.207219
0.205609
0.20402
0.202454
0.200915
0.199405
0.197932
0.196503
0.195129
0.193826
0.192607
0.191485
0.190451
0.189495
0.188506
0.187676
0.18562
0.226899
0.22612
0.225338
0.224553
0.223767
0.22298
0.222191
0.221402
0.220613
0.219826
0.21904
0.218257
0.217478
0.216704
0.215936
0.215176
0.214424
0.213682
0.212951
0.212233
0.211528
0.21084
0.210169
0.209517
0.208887
0.20828
0.207701
0.207152
0.206637
0.206161
0.205728
0.205343
0.205013
0.204745
0.204546
0.204423
0.204385
0.20444
0.204597
0.204865
0.205251
0.205764
0.206409
0.207191
0.208112
0.209173
0.21037
0.211696
0.213139
0.214684
0.21631
0.21799
0.219694
0.221387
0.223033
0.224593
0.22603
0.227307
0.228396
0.229271
0.229915
0.230318
0.230479
0.2304
0.230093
0.229572
0.228854
0.227959
0.226908
0.225722
0.224421
0.223023
0.221547
0.220006
0.218417
0.216789
0.215134
0.213461
0.211776
0.210086
0.208396
0.206709
0.20503
0.203359
0.201701
0.200056
0.198428
0.196819
0.195235
0.193681
0.192167
0.190707
0.189321
0.188031
0.186857
0.185807
0.184881
0.183989
0.183287
0.18162
0.226892
0.226112
0.22533
0.224545
0.223759
0.22297
0.222181
0.221391
0.220601
0.219811
0.219023
0.218237
0.217454
0.216675
0.215902
0.215135
0.214375
0.213625
0.212884
0.212155
0.211438
0.210737
0.210051
0.209384
0.208737
0.208113
0.207515
0.206946
0.206409
0.205908
0.205449
0.205036
0.204674
0.20437
0.204131
0.203963
0.203874
0.203872
0.203964
0.204159
0.204462
0.204882
0.205423
0.206089
0.206882
0.207804
0.208849
0.210013
0.211286
0.212652
0.214096
0.215592
0.217115
0.218633
0.220113
0.221521
0.22282
0.223979
0.224968
0.225763
0.226346
0.226707
0.22684
0.226749
0.226441
0.225927
0.225224
0.224348
0.22332
0.222157
0.220879