/*--------------------------------*- C++ -*----------------------------------*\
| =========                 |                                                 |
| \\      /  F ield         | OpenFOAM: The Open Source CFD Toolbox           |
|  \\    /   O peration     | Version:  2.1.1                                 |
|   \\  /    A nd           | Web:      www.OpenFOAM.org                      |
|    \\/     M anipulation  |                                                 |
\*---------------------------------------------------------------------------*/
FoamFile
{
    version     2.0;
    format      ascii;
    class       volScalarField;
    location    "0.085";
    object      nut;
}
// * * * * * * * * * * * * * * * * * * * * * * * * * * * * * * * * * * * * * //

dimensions      [0 2 -1 0 0 0 0];

internalField   nonuniform List<scalar> 
6820
(
4.96025e-05
5.47044e-05
5.94497e-05
6.37667e-05
6.76166e-05
7.09776e-05
7.38479e-05
7.62455e-05
7.82025e-05
7.97606e-05
8.09662e-05
8.1867e-05
8.2509e-05
8.29352e-05
8.31842e-05
8.32901e-05
8.3282e-05
8.31849e-05
8.30196e-05
8.28031e-05
8.25495e-05
8.22701e-05
8.1974e-05
8.16683e-05
8.13586e-05
8.10491e-05
8.0743e-05
8.04431e-05
8.01476e-05
7.98735e-05
7.95431e-05
7.95294e-05
7.80191e-05
0.000540295
0.000304972
0.000219958
0.000171556
0.000140517
0.000119653
0.000105128
9.47436e-05
8.7179e-05
8.15973e-05
7.74485e-05
7.43589e-05
7.20677e-05
7.03891e-05
6.91876e-05
6.8363e-05
6.78397e-05
6.75601e-05
6.74794e-05
6.75626e-05
6.77816e-05
6.81139e-05
6.85409e-05
6.90474e-05
6.96203e-05
7.02487e-05
7.0923e-05
7.16343e-05
7.23755e-05
7.31343e-05
7.39088e-05
7.46691e-05
7.53393e-05
0.00105857
0.000836087
0.000679238
0.000569615
0.000490054
0.000430118
0.000383704
0.000346858
0.000316958
0.000292242
0.000271495
0.000253855
0.000238695
0.000225547
0.000214054
0.000203942
0.000194992
0.000187031
0.000179919
0.00017354
0.0001678
0.000162619
0.00015793
0.000153677
0.000149812
0.000146292
0.000143082
0.000140152
0.000137473
0.000135026
0.000132771
0.000130758
0.000128668
0.00115953
0.00109653
0.00101167
0.000926417
0.000849811
0.000783621
0.000727068
0.00067874
0.000637223
0.000601292
0.000569946
0.00054238
0.000517956
0.000496162
0.000476592
0.000458918
0.000442873
0.000428239
0.000414835
0.000402512
0.000391142
0.00038062
0.000370852
0.000361762
0.000353281
0.000345352
0.000337925
0.000330957
0.000324413
0.000318262
0.000312493
0.000307078
0.000302055
0.00116966
0.00115863
0.00113363
0.00109757
0.00105569
0.0010122
0.000969674
0.000929417
0.000891977
0.000857478
0.000825828
0.000796838
0.00077028
0.000745923
0.000723544
0.00070294
0.000683928
0.000666345
0.000650045
0.0006349
0.000620799
0.000607639
0.000595333
0.000583803
0.000572978
0.000562796
0.000553201
0.000544143
0.00053558
0.000527472
0.000519788
0.000512499
0.000505592
0.00117006
0.00116839
0.00116306
0.00115261
0.00113713
0.00111767
0.00109554
0.00107191
0.00104772
0.0010236
0.001
0.000977188
0.000955319
0.000934472
0.000914676
0.000895922
0.000878184
0.000861419
0.00084558
0.000830615
0.000816472
0.0008031
0.000790447
0.000778465
0.00076711
0.000756337
0.000746106
0.000736379
0.000727121
0.000718298
0.000709882
0.00070185
0.000694175
0.00116996
0.00116938
0.00116821
0.00116569
0.00116123
0.00115458
0.00114584
0.00113528
0.00112328
0.00111024
0.00109649
0.00108234
0.00106802
0.00105372
0.00103958
0.0010257
0.00101215
0.00099898
0.000986227
0.000973908
0.00096203
0.000950594
0.000939597
0.000929028
0.000918876
0.000909126
0.000899763
0.00089077
0.00088213
0.000873827
0.000865845
0.000858172
0.000850792
0.00116994
0.0011694
0.00116883
0.00116803
0.00116674
0.00116472
0.0011618
0.00115791
0.00115304
0.00114728
0.00114074
0.00113354
0.00112582
0.00111769
0.00110928
0.00110069
0.00109198
0.00108325
0.00107454
0.0010659
0.00105737
0.00104897
0.00104074
0.00103268
0.00102481
0.00101714
0.00100966
0.00100239
0.000995321
0.000988453
0.000981785
0.000975314
0.000969036
0.00116994
0.00116939
0.00116886
0.00116832
0.0011677
0.00116692
0.00116588
0.00116449
0.00116269
0.00116043
0.00115772
0.00115455
0.00115097
0.00114701
0.00114272
0.00113814
0.00113333
0.00112833
0.00112318
0.00111792
0.00111259
0.00110722
0.00110182
0.00109644
0.00109107
0.00108575
0.00108049
0.00107528
0.00107015
0.00106511
0.00106015
0.00105528
0.00105051
0.00116994
0.00116938
0.00116885
0.00116833
0.00116782
0.00116729
0.00116671
0.00116605
0.00116526
0.00116432
0.00116319
0.00116185
0.0011603
0.00115853
0.00115654
0.00115435
0.00115196
0.00114941
0.0011467
0.00114385
0.00114089
0.00113783
0.00113468
0.00113147
0.00112821
0.00112492
0.0011216
0.00111827
0.00111493
0.0011116
0.00110828
0.00110498
0.00110172
0.00116994
0.00116938
0.00116884
0.00116832
0.00116782
0.00116732
0.00116683
0.00116634
0.00116582
0.00116527
0.00116466
0.00116399
0.00116324
0.0011624
0.00116146
0.00116042
0.00115927
0.00115802
0.00115668
0.00115523
0.0011537
0.00115209
0.0011504
0.00114865
0.00114683
0.00114496
0.00114305
0.0011411
0.00113912
0.00113711
0.00113509
0.00113305
0.001131
0.00116994
0.00116938
0.00116884
0.00116832
0.00116781
0.00116732
0.00116684
0.00116637
0.00116591
0.00116545
0.00116499
0.00116451
0.00116402
0.0011635
0.00116296
0.00116238
0.00116175
0.00116109
0.00116038
0.00115962
0.00115882
0.00115796
0.00115707
0.00115613
0.00115515
0.00115413
0.00115308
0.00115199
0.00115088
0.00114974
0.00114858
0.00114739
0.00114619
0.00116994
0.00116938
0.00116884
0.00116832
0.00116781
0.00116732
0.00116684
0.00116637
0.00116592
0.00116547
0.00116504
0.00116461
0.00116419
0.00116377
0.00116334
0.00116291
0.00116248
0.00116203
0.00116157
0.0011611
0.0011606
0.0011601
0.00115957
0.00115902
0.00115846
0.00115787
0.00115727
0.00115665
0.00115601
0.00115536
0.00115469
0.00115401
0.00115331
0.00116994
0.00116938
0.00116884
0.00116832
0.00116781
0.00116731
0.00116683
0.00116637
0.00116591
0.00116547
0.00116504
0.00116462
0.00116421
0.00116381
0.00116342
0.00116303
0.00116265
0.00116227
0.0011619
0.00116152
0.00116115
0.00116077
0.00116039
0.00116
0.00115961
0.00115922
0.00115882
0.00115842
0.00115801
0.00115759
0.00115717
0.00115675
0.00115632
0.00116994
0.00116938
0.00116884
0.00116832
0.00116781
0.00116731
0.00116683
0.00116636
0.00116591
0.00116547
0.00116504
0.00116462
0.00116421
0.00116381
0.00116343
0.00116305
0.00116268
0.00116232
0.00116197
0.00116162
0.00116128
0.00116095
0.00116062
0.00116029
0.00115997
0.00115965
0.00115933
0.00115901
0.0011587
0.00115838
0.00115807
0.00115776
0.00115745
0.00116994
0.00116938
0.00116884
0.00116831
0.0011678
0.00116731
0.00116683
0.00116636
0.0011659
0.00116546
0.00116503
0.00116461
0.00116421
0.00116381
0.00116342
0.00116305
0.00116268
0.00116233
0.00116198
0.00116164
0.00116131
0.00116098
0.00116067
0.00116036
0.00116006
0.00115976
0.00115947
0.00115918
0.0011589
0.00115863
0.00115836
0.00115809
0.00115783
0.00116994
0.00116938
0.00116884
0.00116831
0.0011678
0.00116731
0.00116683
0.00116636
0.0011659
0.00116546
0.00116503
0.00116461
0.0011642
0.0011638
0.00116342
0.00116304
0.00116268
0.00116232
0.00116197
0.00116163
0.00116131
0.00116098
0.00116067
0.00116037
0.00116007
0.00115978
0.0011595
0.00115922
0.00115895
0.00115869
0.00115843
0.00115818
0.00115793
0.00116994
0.00116938
0.00116884
0.00116831
0.0011678
0.00116731
0.00116682
0.00116635
0.0011659
0.00116546
0.00116502
0.0011646
0.0011642
0.0011638
0.00116341
0.00116304
0.00116267
0.00116231
0.00116197
0.00116163
0.0011613
0.00116098
0.00116067
0.00116036
0.00116006
0.00115978
0.00115949
0.00115922
0.00115895
0.00115869
0.00115844
0.00115819
0.00115795
0.00116994
0.00116938
0.00116884
0.00116831
0.0011678
0.0011673
0.00116682
0.00116635
0.0011659
0.00116545
0.00116502
0.0011646
0.00116419
0.00116379
0.00116341
0.00116303
0.00116266
0.00116231
0.00116196
0.00116162
0.00116129
0.00116097
0.00116066
0.00116035
0.00116006
0.00115977
0.00115949
0.00115921
0.00115895
0.00115869
0.00115844
0.00115819
0.00115795
0.00116994
0.00116938
0.00116884
0.00116831
0.0011678
0.0011673
0.00116682
0.00116635
0.00116589
0.00116545
0.00116502
0.0011646
0.00116419
0.00116379
0.0011634
0.00116303
0.00116266
0.0011623
0.00116195
0.00116161
0.00116128
0.00116096
0.00116065
0.00116035
0.00116005
0.00115976
0.00115948
0.0011592
0.00115894
0.00115868
0.00115843
0.00115818
0.00115794
0.00116994
0.00116938
0.00116884
0.00116831
0.0011678
0.0011673
0.00116682
0.00116635
0.00116589
0.00116545
0.00116502
0.0011646
0.00116419
0.00116379
0.0011634
0.00116302
0.00116265
0.0011623
0.00116195
0.00116161
0.00116128
0.00116096
0.00116064
0.00116034
0.00116004
0.00115975
0.00115947
0.0011592
0.00115893
0.00115867
0.00115842
0.00115817
0.00115793
0.00116994
0.00116938
0.00116884
0.00116831
0.0011678
0.0011673
0.00116682
0.00116635
0.00116589
0.00116545
0.00116501
0.00116459
0.00116418
0.00116378
0.0011634
0.00116302
0.00116265
0.00116229
0.00116194
0.0011616
0.00116127
0.00116095
0.00116064
0.00116033
0.00116003
0.00115974
0.00115946
0.00115919
0.00115892
0.00115866
0.00115841
0.00115816
0.00115792
0.00116994
0.00116938
0.00116884
0.00116831
0.0011678
0.0011673
0.00116682
0.00116635
0.00116589
0.00116545
0.00116501
0.00116459
0.00116418
0.00116378
0.00116339
0.00116302
0.00116265
0.00116229
0.00116194
0.0011616
0.00116127
0.00116095
0.00116063
0.00116033
0.00116003
0.00115974
0.00115945
0.00115918
0.00115891
0.00115865
0.0011584
0.00115815
0.00115791
0.00116994
0.00116938
0.00116884
0.00116831
0.0011678
0.0011673
0.00116682
0.00116635
0.00116589
0.00116544
0.00116501
0.00116459
0.00116418
0.00116378
0.00116339
0.00116301
0.00116264
0.00116229
0.00116194
0.0011616
0.00116126
0.00116094
0.00116063
0.00116032
0.00116002
0.00115973
0.00115945
0.00115917
0.0011589
0.00115864
0.00115839
0.00115814
0.0011579
0.00116994
0.00116938
0.00116884
0.00116831
0.0011678
0.0011673
0.00116682
0.00116635
0.00116589
0.00116544
0.00116501
0.00116459
0.00116418
0.00116378
0.00116339
0.00116301
0.00116264
0.00116228
0.00116193
0.00116159
0.00116126
0.00116094
0.00116062
0.00116031
0.00116002
0.00115972
0.00115944
0.00115916
0.0011589
0.00115863
0.00115838
0.00115813
0.00115789
0.00116994
0.00116938
0.00116884
0.00116831
0.0011678
0.0011673
0.00116682
0.00116635
0.00116589
0.00116544
0.00116501
0.00116459
0.00116418
0.00116378
0.00116339
0.00116301
0.00116264
0.00116228
0.00116193
0.00116159
0.00116126
0.00116093
0.00116062
0.00116031
0.00116001
0.00115972
0.00115943
0.00115916
0.00115889
0.00115863
0.00115837
0.00115812
0.00115788
0.00116994
0.00116938
0.00116884
0.00116831
0.0011678
0.0011673
0.00116682
0.00116635
0.00116589
0.00116544
0.00116501
0.00116459
0.00116417
0.00116377
0.00116338
0.00116301
0.00116264
0.00116228
0.00116193
0.00116158
0.00116125
0.00116093
0.00116061
0.0011603
0.00116
0.00115971
0.00115943
0.00115915
0.00115888
0.00115862
0.00115836
0.00115811
0.00115787
0.00116994
0.00116938
0.00116884
0.00116831
0.0011678
0.0011673
0.00116682
0.00116635
0.00116589
0.00116544
0.00116501
0.00116458
0.00116417
0.00116377
0.00116338
0.001163
0.00116263
0.00116227
0.00116192
0.00116158
0.00116125
0.00116092
0.00116061
0.0011603
0.00116
0.00115971
0.00115942
0.00115915
0.00115887
0.00115861
0.00115835
0.0011581
0.00115786
0.00116994
0.00116938
0.00116884
0.00116831
0.0011678
0.0011673
0.00116682
0.00116634
0.00116589
0.00116544
0.00116501
0.00116458
0.00116417
0.00116377
0.00116338
0.001163
0.00116263
0.00116227
0.00116192
0.00116158
0.00116125
0.00116092
0.00116061
0.0011603
0.00116
0.0011597
0.00115942
0.00115914
0.00115887
0.00115861
0.00115835
0.0011581
0.00115785
0.00116994
0.00116938
0.00116884
0.00116831
0.0011678
0.0011673
0.00116682
0.00116635
0.00116589
0.00116544
0.00116501
0.00116459
0.00116417
0.00116377
0.00116338
0.001163
0.00116263
0.00116227
0.00116192
0.00116158
0.00116125
0.00116092
0.00116061
0.0011603
0.00116
0.0011597
0.00115942
0.00115914
0.00115887
0.0011586
0.00115834
0.00115809
0.00115784
0.00116994
0.00116938
0.00116884
0.00116831
0.0011678
0.0011673
0.00116682
0.00116635
0.00116589
0.00116544
0.00116501
0.00116459
0.00116418
0.00116378
0.00116339
0.00116301
0.00116264
0.00116228
0.00116193
0.00116158
0.00116125
0.00116092
0.00116061
0.0011603
0.00116
0.0011597
0.00115941
0.00115913
0.00115886
0.00115859
0.00115833
0.00115808
0.00115783
0.00116994
0.00116938
0.00116884
0.00116831
0.0011678
0.00116731
0.00116682
0.00116635
0.0011659
0.00116545
0.00116502
0.0011646
0.00116418
0.00116378
0.00116339
0.00116301
0.00116264
0.00116228
0.00116193
0.00116159
0.00116125
0.00116092
0.0011606
0.00116029
0.00115998
0.00115968
0.00115939
0.00115911
0.00115883
0.00115855
0.00115828
0.00115802
0.00115776
0.00116994
0.00116938
0.00116884
0.00116831
0.00116781
0.00116731
0.00116683
0.00116636
0.0011659
0.00116546
0.00116503
0.0011646
0.00116419
0.00116379
0.0011634
0.00116301
0.00116264
0.00116227
0.00116191
0.00116155
0.0011612
0.00116086
0.00116052
0.00116019
0.00115986
0.00115954
0.00115922
0.0011589
0.00115859
0.00115828
0.00115797
0.00115767
0.00115737
0.00116994
0.00116938
0.00116884
0.00116833
0.00116782
0.00116733
0.00116685
0.00116638
0.00116593
0.00116548
0.00116503
0.00116459
0.00116416
0.00116373
0.00116331
0.00116288
0.00116246
0.00116204
0.00116161
0.00116119
0.00116076
0.00116033
0.0011599
0.00115946
0.00115903
0.00115858
0.00115814
0.00115769
0.00115724
0.00115678
0.00115633
0.00115586
0.0011554
0.00116994
0.00116939
0.00116886
0.00116835
0.00116784
0.00116733
0.00116683
0.00116632
0.00116581
0.00116528
0.00116473
0.00116417
0.00116358
0.00116297
0.00116233
0.00116166
0.00116096
0.00116024
0.00115949
0.0011587
0.00115789
0.00115706
0.0011562
0.00115532
0.00115441
0.00115348
0.00115254
0.00115158
0.0011506
0.00114961
0.00114861
0.0011476
0.00114658
0.00116995
0.0011694
0.00116886
0.00116828
0.00116765
0.00116694
0.00116612
0.00116519
0.00116413
0.00116294
0.00116162
0.00116017
0.00115859
0.00115688
0.00115506
0.00115314
0.00115111
0.00114899
0.0011468
0.00114453
0.0011422
0.00113982
0.00113739
0.00113492
0.00113243
0.00112991
0.00112738
0.00112483
0.00112228
0.00111973
0.00111719
0.00111465
0.00111213
0.00116996
0.00116916
0.00116786
0.00116595
0.00116343
0.0011603
0.00115657
0.00115227
0.00114747
0.00114222
0.00113659
0.00113064
0.00112443
0.00111802
0.00111145
0.00110479
0.00109805
0.00109129
0.00108453
0.00107779
0.0010711
0.00106448
0.00105794
0.00105149
0.00104514
0.00103891
0.0010328
0.00102681
0.00102095
0.00101522
0.00100962
0.00100415
0.000998817
0.00116831
0.00115866
0.00114501
0.00112845
0.0011097
0.00108949
0.00106845
0.0010471
0.00102583
0.00100491
0.000984524
0.000964792
0.000945785
0.000927541
0.000910071
0.000893373
0.000877429
0.000862216
0.000847706
0.000833869
0.000820673
0.000808085
0.000796075
0.000784611
0.000773664
0.000763206
0.000753211
0.000743652
0.000734507
0.000725752
0.000717366
0.00070933
0.000701623
0.00107567
0.000936196
0.000835608
0.000756888
0.000692095
0.00063835
0.000593447
0.000555559
0.000523248
0.000495407
0.000471191
0.000449945
0.000431165
0.00041445
0.000399486
0.000386017
0.000373836
0.000362775
0.000352691
0.000343466
0.000335002
0.000327213
0.000320027
0.00031338
0.00030722
0.000301497
0.000296172
0.000291206
0.000286568
0.00028223
0.000278165
0.000274352
0.000270767
0.000142979
0.000146644
0.000150174
0.000153551
0.000156773
0.000159846
0.000162776
0.000165567
0.000168224
0.000170754
0.000173161
0.000175449
0.000177624
0.00017969
0.000181653
0.000183515
0.000185283
0.000186961
0.000188552
0.00019006
0.000191491
0.000192846
0.000194131
0.000195349
0.000196502
0.000197595
0.00019863
0.00019961
0.000200538
0.000201417
0.000202249
0.000203037
0.000203783
9.0659e-05
0.000111326
0.000139767
0.000176791
0.000221002
0.000269418
0.000318676
0.000366214
0.000410959
0.000453327
0.000494669
0.000536474
0.000579722
0.00062465
0.000670974
0.000718368
0.000766895
0.000817064
0.000869647
0.00092538
0.000984763
0.00104803
0.0011152
0.00118615
0.00126063
0.00133816
0.00141802
0.00149921
0.00158042
0.00166012
0.00173659
0.00180798
0.00187232
0.00192756
0.00197157
0.00200219
0.00201722
0.00201449
0.00199188
0.00194745
0.00187953
0.00178692
0.00166928
0.00152774
0.00136619
0.00119351
0.00102726
0.000897488
0.000845086
0.000901114
0.00104219
0.00119355
0.00131153
0.00139892
0.00146749
0.00152406
0.00157164
0.00161169
0.00164518
0.00167302
0.00169613
0.00171541
0.00173175
0.00174594
0.00175869
0.0017706
0.00178216
0.00179376
0.0018057
0.00181816
0.00183122
0.00184489
0.00185907
0.00187361
0.00188832
0.00190299
0.00191741
0.00193139
0.00194476
0.00195736
0.0019691
0.0019799
0.00198973
0.00199859
0.00200654
0.00201365
0.00202004
0.00202579
0.00203099
0.00203559
0.00203943
0.00204209
0.00204286
0.00204072
0.00203434
0.00202217
0.00200275
0.00197401
0.00194016
0.0018658
7.65658e-05
7.88798e-05
8.27161e-05
8.91553e-05
9.95835e-05
0.000115522
0.00013833
0.000168803
0.000206809
0.000251116
0.000299558
0.00034955
0.000398818
0.000446016
0.000490884
0.000534098
0.000576973
0.000620737
0.000666151
0.000713514
0.000762904
0.000814429
0.000868328
0.00092491
0.000984401
0.00104679
0.00111172
0.00117851
0.00124612
0.00131326
0.00137838
0.00143975
0.00149547
0.00154349
0.00158169
0.00160785
0.00161976
0.00161528
0.00159239
0.00154939
0.00148507
0.00139913
0.00129283
0.0011701
0.00103953
0.000916946
0.000827769
0.000804236
0.00086782
0.000997575
0.00113695
0.00125109
0.00133914
0.00140946
0.00146796
0.00151766
0.00156006
0.00159605
0.00162638
0.00165177
0.00167297
0.00169075
0.00170586
0.00171899
0.00173076
0.0017417
0.00175227
0.00176283
0.00177369
0.00178505
0.00179703
0.00180968
0.00182296
0.00183678
0.00185098
0.00186539
0.00187981
0.00189405
0.00190792
0.00192126
0.00193392
0.00194579
0.00195681
0.00196694
0.0019762
0.00198464
0.00199232
0.00199932
0.00200568
0.00201139
0.00201624
0.00201984
0.00202151
0.00202023
0.0020147
0.00200342
0.00198495
0.00195727
0.00192454
0.00185211
0.000126526
0.000124429
0.000122411
0.000120315
0.000118126
0.000116001
0.000114318
0.000113904
0.000116218
0.000123083
0.000136133
0.000156394
0.000184131
0.000218815
0.000259228
0.000303618
0.000349949
0.000396327
0.000441625
0.0004856
0.000528722
0.000571837
0.000615822
0.000661357
0.000708825
0.000758314
0.000809654
0.000862444
0.000916054
0.000969603
0.00102194
0.00107165
0.00111707
0.00115633
0.00118743
0.00120828
0.00121685
0.00121124
0.00118989
0.00115183
0.00109707
0.00102731
0.000946914
0.000864418
0.000794117
0.000756523
0.000773663
0.000853741
0.000974667
0.00109851
0.00120368
0.00128841
0.0013577
0.0014161
0.00146632
0.00150982
0.00154741
0.00157966
0.00160708
0.00163022
0.00164971
0.00166615
0.00168017
0.00169236
0.00170327
0.00171336
0.00172304
0.00173267
0.00174252
0.00175282
0.00176371
0.00177528
0.00178755
0.00180047
0.00181394
0.00182783
0.00184195
0.00185614
0.00187021
0.00188397
0.00189727
0.00190997
0.00192196
0.00193318
0.0019436
0.00195324
0.00196212
0.0019703
0.00197781
0.0019846
0.00199048
0.00199506
0.00199768
0.00199736
0.00199282
0.00198261
0.00196533
0.00193898
0.00190767
0.00183764
0.000296556
0.000290446
0.000284436
0.000278576
0.000272948
0.000267686
0.000262844
0.000258083
0.000252306
0.000243704
0.000230936
0.000214957
0.000199263
0.000187849
0.000183267
0.000186358
0.000197043
0.000214626
0.000238233
0.000266754
0.000298952
0.000333641
0.000369862
0.000406981
0.000444701
0.000482979
0.000521884
0.000561444
0.00060152
0.000641708
0.000681305
0.000719302
0.000754427
0.000785196
0.000810011
0.000827264
0.000835493
0.000833593
0.000821106
0.000798646
0.000768485
0.000735334
0.000707179
0.000695634
0.000714247
0.000772303
0.000865464
0.000974818
0.00108037
0.00117219
0.00124932
0.00131441
0.0013704
0.00141937
0.00146253
0.00150055
0.00153382
0.00156268
0.00158747
0.0016086
0.00162653
0.00164177
0.00165482
0.00166619
0.00167634
0.00168568
0.00169459
0.00170337
0.00171231
0.00172161
0.00173145
0.00174194
0.00175314
0.00176504
0.00177761
0.00179073
0.0018043
0.00181814
0.00183208
0.00184596
0.00185959
0.00187282
0.00188553
0.00189761
0.001909
0.00191968
0.00192964
0.00193892
0.0019475
0.00195532
0.00196222
0.00196779
0.00197141
0.00197211
0.00196869
0.0019597
0.0019438
0.00191902
0.00188937
0.00182216
0.000497995
0.000489658
0.000481532
0.000473594
0.000465855
0.000458392
0.000451395
0.000445177
0.000440093
0.000436261
0.000433089
0.00042879
0.00042037
0.00040481
0.000381264
0.000352433
0.00032254
0.000297939
0.000280018
0.000268704
0.000263608
0.000264231
0.000270009
0.000280335
0.000294585
0.000312148
0.000332449
0.000354959
0.00037918
0.000404612
0.000430713
0.000456857
0.000482325
0.000506318
0.000528031
0.00054678
0.000562194
0.000574487
0.000584782
0.000595488
0.000610579
0.000635498
0.000676089
0.000736115
0.000814253
0.000903499
0.000994502
0.00107985
0.00115595
0.00122241
0.00128054
0.00133197
0.00137797
0.00141936
0.00145659
0.00148987
0.00151937
0.00154524
0.00156769
0.00158701
0.00160356
0.00161772
0.00162991
0.00164055
0.00165004
0.00165873
0.00166695
0.00167499
0.00168311
0.0016915
0.00170035
0.00170979
0.0017199
0.00173073
0.00174226
0.00175446
0.00176723
0.00178046
0.00179398
0.00180766
0.00182131
0.00183477
0.0018479
0.00186058
0.0018727
0.00188422
0.0018951
0.00190533
0.00191488
0.00192368
0.00193155
0.0019381
0.00194273
0.00194453
0.00194231
0.00193468
0.00192034
0.00189735
0.0018696
0.00180562
0.000685673
0.000676307
0.000667158
0.000658186
0.000649338
0.00064058
0.000631915
0.000623417
0.000615248
0.000607664
0.000600935
0.000595177
0.000590074
0.000584643
0.000577176
0.000565825
0.000548471
0.000527821
0.000505647
0.000483403
0.000462304
0.000443307
0.000427098
0.000414119
0.000404608
0.000398652
0.000396227
0.00039724
0.000401555
0.000409015
0.000419453
0.000432704
0.000448619
0.000467094
0.000488122
0.000511865
0.00053874
0.000569496
0.000605216
0.000647177
0.000696489
0.000753563
0.000817598
0.000886447
0.000957024
0.00102614
0.00109135
0.00115135
0.00120593
0.00125557
0.00130093
0.00134262
0.00138103
0.00141636
0.00144867
0.00147795
0.0015042
0.00152747
0.00154787
0.0015656
0.00158091
0.00159411
0.00160553
0.00161553
0.00162443
0.00163255
0.00164018
0.00164757
0.00165495
0.00166253
0.00167047
0.00167892
0.00168797
0.00169771
0.00170816
0.00171931
0.00173112
0.0017435
0.00175635
0.00176953
0.00178288
0.00179626
0.0018095
0.00182248
0.00183507
0.00184719
0.00185878
0.00186979
0.00188017
0.00188984
0.0018986
0.0019061
0.00191175
0.00191467
0.00191372
0.00190758
0.00189495
0.00187396
0.00184833
0.00178797
0.000842544
0.000833372
0.000824331
0.000815399
0.000806543
0.000797729
0.000788932
0.000780147
0.000771407
0.00076279
0.000754432
0.00074651
0.000739183
0.000732497
0.00072626
0.000719991
0.000712881
0.000704633
0.000695156
0.000684563
0.000673147
0.000661331
0.000649608
0.000638487
0.000628451
0.00061994
0.000613336
0.000608972
0.000607139
0.000608097
0.000612086
0.000619338
0.000630082
0.000644551
0.000662978
0.000685593
0.000712595
0.000744119
0.000780165
0.000820528
0.000864713
0.000911906
0.000961017
0.0010108
0.00106008
0.00110787
0.00115356
0.00119688
0.00123784
0.00127655
0.00131316
0.00134776
0.00138034
0.00141081
0.00143907
0.00146499
0.00148848
0.00150952
0.00152815
0.00154448
0.0015587
0.00157104
0.00158178
0.0015912
0.00159958
0.0016072
0.0016143
0.00162112
0.00162787
0.00163472
0.00164184
0.00164938
0.00165744
0.00166611
0.00167546
0.00168551
0.00169624
0.00170763
0.00171958
0.00173201
0.00174479
0.00175777
0.00177081
0.00178377
0.00179653
0.00180897
0.00182102
0.0018326
0.00184364
0.00185403
0.00186359
0.00187196
0.00187858
0.00188263
0.00188301
0.00187844
0.00186767
0.00184886
0.00182554
0.00176917
0.00096195
0.00095398
0.000946035
0.000938109
0.00093019
0.000922263
0.000914314
0.000906338
0.000898346
0.000890366
0.000882456
0.000874698
0.000867205
0.000860095
0.000853464
0.000847328
0.000841629
0.000836244
0.000831045
0.000825928
0.00082084
0.000815792
0.000810867
0.00080621
0.000802019
0.000798525
0.000795986
0.000794669
0.000794846
0.000796785
0.000800749
0.000806985
0.000815725
0.000827174
0.000841502
0.000858829
0.000879206
0.000902593
0.000928841
0.000957676
0.000988702
0.00102143
0.0010553
0.00108976
0.00112433
0.00115863
0.00119238
0.00122541
0.00125764
0.00128898
0.00131935
0.00134862
0.00137663
0.0014032
0.00142813
0.00145124
0.0014724
0.00149154
0.00150863
0.00152375
0.00153701
0.0015486
0.00155873
0.00156764
0.00157556
0.00158273
0.00158938
0.0015957
0.00160188
0.00160809
0.00161449
0.0016212
0.00162835
0.00163602
0.0016443
0.00165323
0.00166284
0.00167312
0.00168404
0.00169551
0.00170747
0.00171977
0.00173231
0.00174495
0.00175757
0.00177004
0.00178227
0.00179417
0.00180564
0.00181657
0.00182676
0.00183589
0.00184343
0.00184857
0.0018503
0.00184737
0.00183857
0.00182208
0.00180125
0.00174919
0.00104506
0.00103886
0.00103259
0.00102627
0.0010199
0.00101346
0.00100696
0.0010004
0.000993792
0.000987154
0.000980517
0.000973928
0.000967447
0.00096115
0.000955118
0.000949437
0.000944177
0.000939381
0.000935066
0.000931231
0.000927867
0.000924968
0.000922536
0.000920599
0.000919205
0.000918429
0.000918374
0.000919162
0.000920937
0.000923852
0.000928068
0.000933744
0.000941031
0.000950064
0.000960952
0.000973772
0.000988556
0.00100529
0.00102388
0.00104422
0.00106609
0.00108928
0.00111354
0.00113862
0.00116429
0.00119034
0.00121662
0.00124297
0.00126926
0.00129534
0.00132105
0.0013462
0.00137058
0.00139398
0.00141617
0.00143695
0.00145615
0.00147367
0.00148945
0.00150351
0.00151594
0.00152686
0.00153645
0.0015449
0.00155241
0.00155919
0.00156543
0.00157131
0.001577
0.00158265
0.0015884
0.00159438
0.0016007
0.00160746
0.00161473
0.00162259
0.00163107
0.00164021
0.00164999
0.00166038
0.00167132
0.00168273
0.00169451
0.00170654
0.0017187
0.0017309
0.00174301
0.00175494
0.00176659
0.00177783
0.00178848
0.00179822
0.00180654
0.00181272
0.00181577
0.0018145
0.00180774
0.00179371
0.0017755
0.00172804
0.00109793
0.00109357
0.0010891
0.00108454
0.00107988
0.00107512
0.00107028
0.00106535
0.00106036
0.0010553
0.00105022
0.00104513
0.00104007
0.00103509
0.00103024
0.00102558
0.00102118
0.0010171
0.00101339
0.0010101
0.00100727
0.00100492
0.00100309
0.00100179
0.00100106
0.00100092
0.00100143
0.00100264
0.00100462
0.00100743
0.00101118
0.00101593
0.00102179
0.00102882
0.00103711
0.00104671
0.00105766
0.00106996
0.0010836
0.00109853
0.00111468
0.00113196
0.00115026
0.00116948
0.00118949
0.00121018
0.00123143
0.00125312
0.00127512
0.00129727
0.0013194
0.00134131
0.00136278
0.0013836
0.00140353
0.00142235
0.0014399
0.00145603
0.00147069
0.00148384
0.00149554
0.00150588
0.00151499
0.00152303
0.00153017
0.0015366
0.00154248
0.00154797
0.00155323
0.00155839
0.00156358
0.00156891
0.0015745
0.00158042
0.00158677
0.00159363
0.00160104
0.00160904
0.00161766
0.00162689
0.0016367
0.00164704
0.00165784
0.00166901
0.00168046
0.00169208
0.00170378
0.00171545
0.001727
0.0017383
0.00174916
0.00175931
0.00176827
0.00177536
0.00177967
0.00178004
0.00177535
0.00176384
0.00174836
0.00170574
0.0011286
0.0011258
0.00112288
0.00111987
0.00111675
0.00111353
0.00111022
0.00110682
0.00110334
0.0010998
0.00109621
0.00109259
0.00108896
0.00108536
0.00108181
0.00107836
0.00107505
0.00107192
0.00106902
0.0010664
0.0010641
0.00106215
0.00106061
0.0010595
0.00105885
0.0010587
0.00105909
0.00106005
0.00106163
0.00106386
0.00106681
0.00107052
0.00107504
0.00108044
0.00108676
0.00109404
0.00110233
0.00111165
0.001122
0.0011334
0.00114583
0.00115926
0.00117365
0.00118896
0.00120513
0.00122209
0.00123976
0.00125804
0.00127682
0.00129595
0.00131528
0.00133461
0.00135373
0.00137243
0.00139048
0.00140767
0.00142381
0.00143877
0.00145245
0.00146481
0.00147587
0.00148569
0.00149437
0.00150205
0.00150887
0.00151499
0.00152055
0.0015257
0.00153058
0.00153531
0.00154
0.00154477
0.0015497
0.00155489
0.00156042
0.00156635
0.00157276
0.00157968
0.00158717
0.00159522
0.00160385
0.00161302
0.0016227
0.00163283
0.00164333
0.00165412
0.00166513
0.00167626
0.00168742
0.00169849
0.00170932
0.00171963
0.00172903
0.00173688
0.00174232
0.00174426
0.00174161
0.00173267
0.00171996
0.00168235
0.00114477
0.00114308
0.00114131
0.00113946
0.00113751
0.00113549
0.00113339
0.00113121
0.00112896
0.00112665
0.0011243
0.00112191
0.0011195
0.00111709
0.00111471
0.00111236
0.00111009
0.00110792
0.00110589
0.00110402
0.00110235
0.00110091
0.00109974
0.00109888
0.00109835
0.00109819
0.00109844
0.00109912
0.00110028
0.00110195
0.00110418
0.001107
0.00111045
0.00111458
0.00111944
0.00112505
0.00113146
0.00113871
0.00114681
0.0011558
0.00116569
0.00117648
0.00118817
0.00120074
0.00121418
0.00122844
0.00124347
0.00125919
0.00127551
0.00129229
0.0013094
0.00132665
0.00134385
0.0013608
0.00137728
0.00139308
0.00140803
0.00142197
0.0014348
0.00144647
0.00145696
0.00146632
0.00147463
0.00148199
0.00148852
0.00149436
0.00149963
0.00150448
0.00150902
0.00151337
0.00151764
0.00152191
0.00152627
0.00153082
0.00153561
0.00154072
0.00154622
0.00155216
0.00155857
0.00156549
0.00157294
0.00158092
0.0015894
0.00159836
0.00160775
0.00161752
0.0016276
0.00163793
0.00164842
0.00165899
0.0016695
0.00167974
0.00168933
0.00169772
0.00170412
0.00170751
0.00170683
0.00170041
0.00169047
0.00165797
0.00115248
0.0011515
0.00115045
0.00114935
0.00114819
0.00114697
0.0011457
0.00114437
0.00114299
0.00114158
0.00114012
0.00113864
0.00113714
0.00113564
0.00113415
0.00113268
0.00113125
0.00112988
0.00112859
0.0011274
0.00112634
0.00112542
0.00112468
0.00112414
0.00112383
0.00112378
0.00112402
0.00112458
0.0011255
0.00112681
0.00112854
0.00113074
0.00113344
0.00113668
0.0011405
0.00114494
0.00115005
0.00115585
0.0011624
0.00116971
0.00117782
0.00118675
0.00119652
0.00120714
0.00121858
0.00123085
0.00124389
0.00125766
0.00127206
0.00128698
0.00130231
0.00131788
0.0013335
0.00134899
0.00136414
0.00137876
0.00139267
0.00140573
0.00141781
0.00142886
0.00143885
0.0014478
0.00145577
0.00146284
0.00146911
0.0014747
0.00147973
0.00148431
0.00148855
0.00149257
0.00149645
0.00150029
0.00150416
0.00150814
0.00151229
0.00151669
0.00152138
0.00152642
0.00153185
0.00153772
0.00154405
0.00155085
0.00155813
0.00156588
0.00157407
0.00158268
0.00159166
0.00160098
0.00161058
0.0016204
0.00163033
0.0016402
0.00164973
0.00165841
0.00166556
0.00167021
0.00167135
0.00166737
0.00166012
0.00163276
0.00115581