/*--------------------------------*- C++ -*----------------------------------*\
| =========                 |                                                 |
| \\      /  F ield         | OpenFOAM: The Open Source CFD Toolbox           |
|  \\    /   O peration     | Version:  2.1.1                                 |
|   \\  /    A nd           | Web:      www.OpenFOAM.org                      |
|    \\/     M anipulation  |                                                 |
\*---------------------------------------------------------------------------*/
FoamFile
{
    version     2.0;
    format      ascii;
    class       volScalarField;
    location    "0.085";
    object      p;
}
// * * * * * * * * * * * * * * * * * * * * * * * * * * * * * * * * * * * * * //

dimensions      [0 2 -2 0 0 0 0];

internalField   nonuniform List<scalar> 
6820
(
-11.1588
-13.0051
-13.5802
-13.7081
-13.8153
-13.8946
-13.9493
-13.9959
-14.0386
-14.0778
-14.1143
-14.1489
-14.1818
-14.213
-14.2429
-14.2715
-14.2989
-14.3251
-14.3504
-14.3747
-14.3982
-14.4209
-14.4427
-14.4638
-14.484
-14.5031
-14.521
-14.5372
-14.5505
-14.56
-14.5617
-14.5476
-14.5119
-15.1113
-14.5767
-14.1543
-13.9644
-13.9399
-13.9513
-13.9717
-13.9999
-14.0323
-14.0659
-14.0996
-14.1329
-14.1655
-14.1971
-14.2275
-14.2569
-14.2851
-14.3122
-14.3383
-14.3635
-14.3877
-14.4111
-14.4337
-14.4555
-14.4765
-14.4965
-14.5156
-14.5336
-14.55
-14.5667
-14.5815
-14.6188
-14.6662
-13.4688
-13.1651
-13.4517
-13.6969
-13.802
-13.8776
-13.9368
-13.9863
-14.0305
-14.0708
-14.1081
-14.1431
-14.1762
-14.2075
-14.2373
-14.2658
-14.2931
-14.3192
-14.3445
-14.3688
-14.3923
-14.4151
-14.4371
-14.4585
-14.4792
-14.4992
-14.5184
-14.537
-14.555
-14.5734
-14.5925
-14.6191
-14.6479
-13.9757
-14.0101
-14.0074
-13.9483
-13.9407
-13.9614
-13.9879
-14.0169
-14.048
-14.0796
-14.111
-14.1419
-14.1721
-14.2016
-14.2302
-14.2579
-14.2847
-14.3108
-14.336
-14.3604
-14.3842
-14.4073
-14.4297
-14.4516
-14.4729
-14.4937
-14.5139
-14.534
-14.554
-14.5753
-14.5982
-14.63
-14.666
-13.8203
-13.7203
-13.7646
-13.8307
-13.8838
-13.9305
-13.9714
-14.009
-14.045
-14.0796
-14.1128
-14.1447
-14.1755
-14.2052
-14.2338
-14.2613
-14.2879
-14.3136
-14.3385
-14.3627
-14.3861
-14.409
-14.4313
-14.453
-14.4744
-14.4953
-14.516
-14.5368
-14.5579
-14.5803
-14.6048
-14.6346
-14.6676
-13.8754
-13.8588
-13.884
-13.9072
-13.9297
-13.9591
-13.9908
-14.0226
-14.0546
-14.0862
-14.1172
-14.1474
-14.1767
-14.2053
-14.2329
-14.2598
-14.2859
-14.3112
-14.3358
-14.3597
-14.3831
-14.4059
-14.4283
-14.4502
-14.4718
-14.4932
-14.5145
-14.536
-14.5581
-14.5815
-14.6067
-14.6356
-14.6669
-13.8735
-13.8524
-13.8684
-13.8973
-13.9275
-13.9605
-13.9936
-14.0258
-14.0576
-14.0888
-14.1193
-14.149
-14.1779
-14.206
-14.2333
-14.2598
-14.2856
-14.3106
-14.335
-14.3588
-14.3821
-14.4048
-14.4272
-14.4492
-14.471
-14.4926
-14.5143
-14.5363
-14.5589
-14.5827
-14.608
-14.6357
-14.6648
-13.8876
-13.8799
-13.8953
-13.9199
-13.9453
-13.9736
-14.0034
-14.0333
-14.0633
-14.0931
-14.1224
-14.1511
-14.1791
-14.2065
-14.2332
-14.2592
-14.2845
-14.3092
-14.3333
-14.3569
-14.38
-14.4026
-14.425
-14.447
-14.4689
-14.4908
-14.5128
-14.5351
-14.5581
-14.582
-14.6071
-14.6337
-14.6613
-13.9005
-13.8966
-13.9089
-13.9305
-13.9546
-13.9815
-14.0101
-14.0389
-14.0678
-14.0965
-14.1249
-14.1528
-14.1801
-14.2069
-14.233
-14.2585
-14.2835
-14.3078
-14.3317
-14.355
-14.3779
-14.4005
-14.4228
-14.4449
-14.4668
-14.4888
-14.511
-14.5335
-14.5565
-14.5804
-14.6051
-14.6309
-14.6573
-13.914
-13.9134
-13.9248
-13.9443
-13.9666
-13.9915
-14.0181
-14.0453
-14.0728
-14.1003
-14.1277
-14.1547
-14.1812
-14.2073
-14.2328
-14.2578
-14.2823
-14.3063
-14.3298
-14.3529
-14.3756
-14.398
-14.4202
-14.4423
-14.4642
-14.4862
-14.5085
-14.531
-14.554
-14.5777
-14.602
-14.6271
-14.6525
-13.9274
-13.9285
-13.9389
-13.9565
-13.9771
-14.0003
-14.0254
-14.0512
-14.0775
-14.104
-14.1304
-14.1565
-14.1823
-14.2076
-14.2326
-14.2571
-14.2811
-14.3047
-14.3278
-14.3507
-14.3732
-14.3954
-14.4174
-14.4394
-14.4613
-14.4832
-14.5054
-14.5279
-14.5507
-14.5741
-14.598
-14.6224
-14.6472
-13.9406
-13.9426
-13.9524
-13.9684
-13.9876
-14.0093
-14.0328
-14.0573
-14.0823
-14.1077
-14.1331
-14.1583
-14.1833
-14.208
-14.2323
-14.2562
-14.2798
-14.3029
-14.3258
-14.3483
-14.3705
-14.3925
-14.4143
-14.4361
-14.4579
-14.4797
-14.5017
-14.524
-14.5467
-14.5697
-14.5932
-14.617
-14.6412
-13.9533
-13.9558
-13.965
-13.9797
-13.9975
-14.0178
-14.0399
-14.0631
-14.087
-14.1113
-14.1357
-14.1601
-14.1843
-14.2083
-14.232
-14.2553
-14.2784
-14.3011
-14.3235
-14.3457
-14.3676
-14.3894
-14.411
-14.4325
-14.4541
-14.4757
-14.4975
-14.5195
-14.5419
-14.5645
-14.5875
-14.6108
-14.6345
-13.9655
-13.9681
-13.9769
-13.9904
-14.007
-14.0259
-14.0467
-14.0688
-14.0915
-14.1148
-14.1382
-14.1618
-14.1852
-14.2085
-14.2316
-14.2544
-14.2769
-14.2992
-14.3212
-14.3429
-14.3645
-14.3859
-14.4073
-14.4285
-14.4498
-14.4712
-14.4927
-14.5144
-14.5363
-14.5586
-14.5811
-14.6039
-14.6269
-13.977
-13.9797
-13.988
-14.0005
-14.0159
-14.0337
-14.0533
-14.0742
-14.0959
-14.1181
-14.1407
-14.1634
-14.186
-14.2086
-14.231
-14.2533
-14.2753
-14.297
-14.3186
-14.34
-14.3612
-14.3822
-14.4032
-14.4242
-14.4451
-14.4662
-14.4873
-14.5086
-14.5301
-14.5519
-14.5738
-14.5961
-14.6186
-13.9879
-13.9905
-13.9983
-14.01
-14.0244
-14.0411
-14.0596
-14.0793
-14.1
-14.1213
-14.1429
-14.1648
-14.1867
-14.2086
-14.2304
-14.252
-14.2735
-14.2947
-14.3158
-14.3368
-14.3576
-14.3782
-14.3988
-14.4194
-14.44
-14.4606
-14.4813
-14.5021
-14.5232
-14.5444
-14.5658
-14.5874
-14.6093
-13.998
-14.0005
-14.0079
-14.0188
-14.0323
-14.048
-14.0654
-14.0842
-14.1039
-14.1242
-14.145
-14.1661
-14.1872
-14.2084
-14.2296
-14.2506
-14.2715
-14.2922
-14.3128
-14.3333
-14.3536
-14.3739
-14.394
-14.4142
-14.4343
-14.4545
-14.4747
-14.495
-14.5155
-14.5361
-14.5569
-14.5778
-14.599
-14.0074
-14.0098
-14.0167
-14.0269
-14.0396
-14.0544
-14.0709
-14.0887
-14.1074
-14.1269
-14.1469
-14.1671
-14.1876
-14.2081
-14.2285
-14.249
-14.2693
-14.2895
-14.3096
-14.3296
-14.3494
-14.3692
-14.3889
-14.4085
-14.4281
-14.4478
-14.4675
-14.4872
-14.5071
-14.527
-14.5471
-14.5674
-14.5878
-14.016
-14.0183
-14.0248
-14.0344
-14.0463
-14.0602
-14.0759
-14.0928
-14.1107
-14.1293
-14.1484
-14.1679
-14.1876
-14.2075
-14.2273
-14.2471
-14.2669
-14.2865
-14.3061
-14.3255
-14.3448
-14.3641
-14.3832
-14.4024
-14.4214
-14.4405
-14.4596
-14.4787
-14.4979
-14.5172
-14.5365
-14.5559
-14.5755
-14.0239
-14.026
-14.0321
-14.0412
-14.0524
-14.0655
-14.0803
-14.0964
-14.1135
-14.1313
-14.1497
-14.1685
-14.1875
-14.2066
-14.2258
-14.245
-14.2642
-14.2833
-14.3022
-14.3211
-14.3399
-14.3586
-14.3772
-14.3957
-14.4142
-14.4327
-14.4511
-14.4696
-14.488
-14.5065
-14.525
-14.5436
-14.5623
-14.0309
-14.0329
-14.0387
-14.0472
-14.0578
-14.0702
-14.0843
-14.0996
-14.1159
-14.133
-14.1506
-14.1687
-14.187
-14.2055
-14.2241
-14.2427
-14.2612
-14.2797
-14.2981
-14.3164
-14.3346
-14.3527
-14.3707
-14.3887
-14.4065
-14.4243
-14.442
-14.4597
-14.4774
-14.4951
-14.5127
-14.5304
-14.5481
-14.0371
-14.039
-14.0445
-14.0525
-14.0625
-14.0743
-14.0877
-14.1023
-14.1179
-14.1342
-14.1512
-14.1685
-14.1862
-14.204
-14.222
-14.24
-14.2579
-14.2758
-14.2936
-14.3113
-14.3289
-14.3464
-14.3638
-14.3811
-14.3983
-14.4153
-14.4323
-14.4492
-14.4661
-14.4829
-14.4996
-14.5163
-14.5329
-14.0424
-14.0442
-14.0494
-14.057
-14.0665
-14.0777
-14.0905
-14.1044
-14.1193
-14.135
-14.1513
-14.1681
-14.1851
-14.2023
-14.2196
-14.237
-14.2543
-14.2716
-14.2888
-14.3059
-14.3229
-14.3398
-14.3565
-14.3731
-14.3895
-14.4059
-14.4221
-14.4381
-14.4541
-14.47
-14.4857
-14.5014
-14.5169
-14.0469
-14.0486
-14.0535
-14.0607
-14.0697
-14.0804
-14.0926
-14.1059
-14.1202
-14.1353
-14.151
-14.1671
-14.1835
-14.2001
-14.2168
-14.2336
-14.2504
-14.267
-14.2836
-14.3001
-14.3165
-14.3327
-14.3487
-14.3646
-14.3803
-14.3958
-14.4112
-14.4264
-14.4415
-14.4564
-14.4711
-14.4857
-14.5001
-14.0505
-14.0521
-14.0567
-14.0636
-14.0722
-14.0824
-14.0941
-14.1069
-14.1206
-14.1352
-14.1503
-14.1658
-14.1816
-14.1977
-14.2138
-14.23
-14.2462
-14.2623
-14.2782
-14.2941
-14.3098
-14.3253
-14.3406
-14.3557
-14.3707
-14.3854
-14.3999
-14.4142
-14.4284
-14.4423
-14.456
-14.4694
-14.4827
-14.0531
-14.0546
-14.059
-14.0655
-14.0737
-14.0834
-14.0946
-14.1069
-14.1201
-14.1341
-14.1487
-14.1637
-14.179
-14.1945
-14.2101
-14.2258
-14.2413
-14.2568
-14.2722
-14.2874
-14.3025
-14.3173
-14.3319
-14.3463
-14.3605
-14.3744
-14.388
-14.4014
-14.4146
-14.4275
-14.4401
-14.4525
-14.4646
-14.0547
-14.0562
-14.0605
-14.0667
-14.0747
-14.0841
-14.095
-14.1069
-14.1197
-14.1332
-14.1473
-14.1618
-14.1766
-14.1916
-14.2067
-14.2217
-14.2367
-14.2516
-14.2664
-14.2809
-14.2953
-14.3094
-14.3233
-14.3369
-14.3502
-14.3633
-14.376
-14.3885
-14.4007
-14.4125
-14.4241
-14.4353
-14.4461
-14.0553
-14.0566
-14.0605
-14.0663
-14.0737
-14.0827
-14.093
-14.1045
-14.117
-14.1302
-14.1439
-14.1581
-14.1725
-14.187
-14.2016
-14.2162
-14.2307
-14.2451
-14.2593
-14.2733
-14.287
-14.3005
-14.3137
-14.3266
-14.3392
-14.3514
-14.3633
-14.3748
-14.386
-14.3969
-14.4074
-14.4175
-14.4272
-14.0551
-14.0566
-14.0607
-14.0666
-14.0741
-14.083
-14.0932
-14.1045
-14.1166
-14.1294
-14.1427
-14.1564
-14.1703
-14.1843
-14.1983
-14.2123
-14.2262
-14.24
-14.2535
-14.2668
-14.2798
-14.2926
-14.305
-14.317
-14.3287
-14.3401
-14.3511
-14.3616
-14.3718
-14.3816
-14.391
-14.3999
-14.4084
-14.0532
-14.0538
-14.0566
-14.0615
-14.0682
-14.0766
-14.0866
-14.0977
-14.1097
-14.1225
-14.1358
-14.1494
-14.1632
-14.1771
-14.1909
-14.2047
-14.2184
-14.2318
-14.2449
-14.2578
-14.2703
-14.2825
-14.2944
-14.3058
-14.3168
-14.3274
-14.3376
-14.3473
-14.3566
-14.3654
-14.3738
-14.3817
-14.3891
-14.0522
-14.0547
-14.0591
-14.0649
-14.0721
-14.0806
-14.0903
-14.101
-14.1125
-14.1246
-14.1372
-14.1501
-14.1632
-14.1763
-14.1894
-14.2024
-14.2153
-14.2279
-14.2402
-14.2523
-14.264
-14.2754
-14.2863
-14.2969
-14.307
-14.3166
-14.3258
-14.3346
-14.3428
-14.3506
-14.3578
-14.3646
-14.3708
-14.0442
-14.0421
-14.0423
-14.0459
-14.0524
-14.0611
-14.0716
-14.0833
-14.0959
-14.1091
-14.1226
-14.1364
-14.1502
-14.1639
-14.1775
-14.1909
-14.204
-14.2167
-14.2291
-14.2411
-14.2526
-14.2637
-14.2743
-14.2845
-14.2941
-14.3032
-14.3118
-14.3199
-14.3274
-14.3343
-14.3407
-14.3466
-14.3518
-14.0514
-14.0578
-14.0634
-14.0683
-14.074
-14.0811
-14.0896
-14.0993
-14.1098
-14.1209
-14.1326
-14.1445
-14.1566
-14.1688
-14.1809
-14.1929
-14.2046
-14.2162
-14.2274
-14.2382
-14.2486
-14.2586
-14.2682
-14.2773
-14.2859
-14.2939
-14.3015
-14.3084
-14.3149
-14.3207
-14.326
-14.3307
-14.3348
-14.0195
-14.006
-14.001
-14.006
-14.0158
-14.0281
-14.0419
-14.0566
-14.0718
-14.0871
-14.1024
-14.1175
-14.1323
-14.1468
-14.1608
-14.1744
-14.1875
-14.2
-14.212
-14.2235
-14.2344
-14.2447
-14.2544
-14.2635
-14.2721
-14.2799
-14.2872
-14.2938
-14.2998
-14.3051
-14.3098
-14.3138
-14.3172
-14.0729
-14.0931
-14.0973
-14.0925
-14.0899
-14.0919
-14.0969
-14.1036
-14.1117
-14.1209
-14.1309
-14.1413
-14.1521
-14.163
-14.1739
-14.1846
-14.1952
-14.2056
-14.2156
-14.2252
-14.2344
-14.2431
-14.2513
-14.2591
-14.2662
-14.2728
-14.2788
-14.2843
-14.2891
-14.2932
-14.2968
-14.2997
-14.3019
-13.95
-13.9005
-13.8886
-13.9146
-13.9423
-13.9663
-13.9898
-14.0126
-14.0342
-14.0546
-14.074
-14.0922
-14.1095
-14.1259
-14.1413
-14.1559
-14.1697
-14.1827
-14.1949
-14.2064
-14.217
-14.227
-14.2362
-14.2447
-14.2524
-14.2594
-14.2657
-14.2712
-14.276
-14.28
-14.2833
-14.2859
-14.2877
-14.198
-14.2328
-14.2018
-14.159
-14.13
-14.1188
-14.1157
-14.1161
-14.1195
-14.1251
-14.1322
-14.1404
-14.1491
-14.1583
-14.1677
-14.177
-14.1863
-14.1954
-14.2042
-14.2127
-14.2207
-14.2283
-14.2354
-14.242
-14.248
-14.2534
-14.2582
-14.2623
-14.2659
-14.2687
-14.2709
-14.2725
-14.2734
-13.7057
-13.586
-13.6483
-13.7497
-13.8234
-13.8749
-13.9182
-13.956
-13.9888
-14.0176
-14.0433
-14.0664
-14.0873
-14.1065
-14.1241
-14.1403
-14.1552
-14.169
-14.1817
-14.1934
-14.2042
-14.214
-14.223
-14.2311
-14.2383
-14.2447
-14.2503
-14.255
-14.2589
-14.262
-14.2643
-14.2658
-14.2664
-14.9201
-14.5811
-14.3173
-14.2
-14.1497
-14.1241
-14.1087
-14.1021
-14.1018
-14.1054
-14.1113
-14.1189
-14.1275
-14.1367
-14.1463
-14.1559
-14.1654
-14.1747
-14.1837
-14.1924
-14.2005
-14.2081
-14.2152
-14.2217
-14.2276
-14.2328
-14.2374
-14.2413
-14.2444
-14.2469
-14.2487
-14.2497
-14.25
-12.4164
-13.123
-13.5274
-13.6797
-13.7841
-13.8662
-13.9253
-13.9699
-14.0059
-14.0357
-14.0609
-14.0827
-14.102
-14.1194
-14.1351
-14.1495
-14.1628
-14.1749
-14.1861
-14.1964
-14.2058
-14.2143
-14.222
-14.2289
-14.235
-14.2403
-14.2447
-14.2484
-14.2512
-14.2532
-14.2545
-14.2549
-14.2546
-14.3824
-14.5584
-14.6814
-14.7359
-14.7513
-14.766
-14.8055
-14.8896
-15.0227
-15.2004
-15.4146
-15.6557
-15.9135
-16.1779
-16.4381
-16.6855
-16.9142
-17.1185
-17.2956
-17.4446
-17.5658
-17.6608
-17.7314
-17.7799
-17.8083
-17.8184
-17.812
-17.7902
-17.7539
-17.7037
-17.6394
-17.5605
-17.4656
-17.353
-17.2203
-17.0644
-16.8814
-16.6668
-16.4152
-16.1207
-15.7767
-15.376
-14.9116
-14.3763
-13.7637
-13.0687
-12.2881
-11.4224
-10.4766
-9.46187
-8.39814
-7.31474
-6.24358
-5.21203
-4.2432
-3.35676
-2.56713
-1.88205
-1.30264
-0.824446
-0.439085
-0.135909
0.0965623
0.269624
0.393773
0.478379
0.531579
0.560281
0.57025
0.566218
0.552016
0.530695
0.504653
0.475736
0.445342
0.414502
0.383956
0.354214
0.325611
0.298344
0.272522
0.248172
0.225277
0.203782
0.183617
0.164705
0.146964
0.130325
0.114715
0.100097
0.086412
0.0736767
0.0618396
0.0509408
0.0410042
0.0317032
0.0242185
0.0148203
0.013622
-0.00611014
-15.0158
-15.1027
-14.979
-14.8552
-14.7756
-14.7301
-14.7304
-14.7862
-14.9037
-15.0776
-15.2975
-15.5498
-15.8195
-16.0934
-16.359
-16.6054
-16.8287
-17.025
-17.1939
-17.3359
-17.452
-17.5435
-17.612
-17.6591
-17.6864
-17.6956
-17.6882
-17.6655
-17.6285
-17.5775
-17.5124
-17.4324
-17.3365
-17.2226
-17.0882
-16.9303
-16.7448
-16.5273
-16.2723
-15.9741
-15.626
-15.2213
-14.7529
-14.2142
-13.5989
-12.9024
-12.1224
-11.2611
-10.3257
-9.33024
-8.29665
-7.25074
-6.21738
-5.22016
-4.28131
-3.41976
-2.64925
-1.97735
-1.40558
-0.930279
-0.544039
-0.237207
0.000804191
0.180559
0.311986
0.404041
0.464569
0.500285
0.516831
0.518875
0.510219
0.493915
0.472376
0.447478
0.420655
0.392976
0.365223
0.337942
0.311505
0.286143
0.261995
0.239111
0.217501
0.197129
0.177943
0.159881
0.142875
0.126867
0.111796
0.09763
0.0843288
0.0718964
0.0603313
0.0495937
0.0399087
0.0305606
0.0235824
0.0135195
0.0140645
-0.00872851
-14.6944
-14.6609
-14.6543
-14.6822
-14.7104
-14.7369
-14.7823
-14.8605
-14.9753
-15.1265
-15.3108
-15.522
-15.7522
-15.9917
-16.2326
-16.4673
-16.687
-16.8862
-17.0607
-17.2082
-17.328
-17.4209
-17.4889
-17.5344
-17.5595
-17.5665
-17.5571
-17.5326
-17.4939
-17.4412
-17.3743
-17.2925
-17.1945
-17.0782
-16.9412
-16.7802
-16.5913
-16.3699
-16.1108
-15.8079
-15.4551
-15.0455
-14.5724
-14.0292
-13.4104
-12.7129
-11.9366
-11.0856
-10.1686
-9.20082
-8.20178
-7.19234
-6.19426
-5.22984
-4.32014
-3.48293
-2.73122
-2.07244
-1.50844
-1.03628
-0.649468
-0.339286
-0.0960022
0.0902334
0.228789
0.328202
0.396018
0.43875
0.461911
0.470092
0.467062
0.455865
0.438927
0.418148
0.394997
0.370578
0.34571
0.320978
0.296789
0.273407
0.251
0.229645
0.209376
0.190177
0.172016
0.154845
0.138611
0.123267
0.108766
0.0950785
0.0821852
0.0700772
0.0588033
0.0482429
0.0388218
0.0294384
0.0229663
0.0122598
0.0145056
-0.0112703
-14.7518
-14.8403
-14.869
-14.8557
-14.8365
-14.8307
-14.8521
-14.9095
-15.0065
-15.1434
-15.3158
-15.516
-15.734
-15.9596
-16.184
-16.3991
-16.5969
-16.7747
-16.932
-17.0667
-17.1788
-17.2686
-17.3367
-17.3839
-17.4112
-17.4201
-17.4118
-17.3875
-17.3479
-17.2937
-17.2247
-17.1404
-17.0393
-16.9197
-16.779
-16.6138
-16.4204
-16.1939
-15.9293
-15.6207
-15.2617
-14.8459
-14.3671
-13.82
-13.2009
-12.5079
-11.7421
-10.908
-10.0155
-9.07831
-8.11297
-7.13794
-6.17363
-5.24096
-4.35957
-3.54611
-2.81289
-2.16715
-1.61105
-1.14229
-0.755222
-0.44201
-0.19374
-0.00125393
0.144261
0.250922
0.32597
0.375706
0.405504
0.419874
0.42254
0.416535
0.404291
0.38773
0.368348
0.347285
0.325396
0.303301
0.281442
0.260116
0.239519
0.219758
0.200887
0.182915
0.165826
0.149589
0.134167
0.119522
0.105623
0.092445
0.0799866
0.068227
0.0572658
0.0469012
0.0377578
0.0283529
0.0223849
0.0110568
0.0149561
-0.0137183
-14.7172
-14.7463
-14.7424
-14.7424
-14.7588
-14.7893
-14.8388
-14.9145
-15.02
-15.1554
-15.3174
-15.5008
-15.6986
-15.9033
-16.1083
-16.3072
-16.4941
-16.666
-16.8183
-16.9488
-17.0564
-17.1413
-17.2041
-17.246
-17.2686
-17.2733
-17.2615
-17.234
-17.1916
-17.1345
-17.0624
-16.9745
-16.8695
-16.7455
-16.5997
-16.4291
-16.2296
-15.9967
-15.7254
-15.41
-15.045
-14.6246
-14.1437
-13.5977
-12.9836
-12.2999
-11.5487
-10.7356
-9.86947
-8.96238
-8.02915
-7.08712
-6.15539
-5.25343
-4.39951
-3.6092
-2.89413
-2.26135
-1.71325
-1.24814
-0.861126
-0.545207
-0.292245
-0.0937541
0.0585339
0.172316
0.254522
0.311233
0.347677
0.368273
0.376696
0.375956
0.368491
0.356238
0.340718
0.323104
0.304283
0.284911
0.265463
0.246268
0.227551
0.209446
0.192032
0.175339
0.15937
0.144111
0.129539
0.11563
0.102364
0.0897246
0.0777272
0.0663395
0.0557113
0.0455608
0.0367078
0.0272965
0.0218282
0.00990614
0.0154017
-0.0160649
-14.7091
-14.7514
-14.7794
-14.8009
-14.8223
-14.8501
-14.8935
-14.9602
-15.0539
-15.1749
-15.3209
-15.4875
-15.6683
-15.8565
-16.0455
-16.2292
-16.4021
-16.5599
-16.6997
-16.8199
-16.9198
-16.9994
-17.0589
-17.0989
-17.1203
-17.1239
-17.1105
-17.0809
-17.0355
-16.9747
-16.8981
-16.805
-16.6942
-16.5638
-16.4113
-16.2336
-16.0271
-15.7874
-15.5099
-15.1893
-14.8204
-14.3981
-13.9175
-13.3748
-12.7677
-12.096
-11.362
-10.5709
-9.73059
-8.85228
-7.9499
-7.03969
-6.13941
-5.26714
-4.43986
-3.67209
-2.97482
-2.35489
-1.8149
-1.35367
-0.967025
-0.648726
-0.391375
-0.187137
-0.0282773
0.092482
0.181756
0.245399
0.288485
0.315333
0.32956
0.334153
0.331544
0.323683
0.312114
0.298036
0.28237
0.265805
0.248847
0.231858
0.215091
0.198706
0.182807
0.167445
0.152644
0.138406
0.124724
0.111586
0.098987
0.0869151
0.075405
0.0644129
0.054138
0.0442204
0.0356699
0.026269
0.0212938
0.00881082
0.0158344
-0.018297
-14.7009
-14.7373
-14.7619
-14.7819
-14.8068
-14.8424
-14.8935
-14.9648
-15.0585
-15.175
-15.3123
-15.4665
-15.6327
-15.8052
-15.9784
-16.147
-16.3062
-16.4525
-16.583
-16.6956
-16.7892
-16.8633
-16.918
-16.9537
-16.971
-16.9708
-16.9539
-16.9208
-16.872
-16.8074
-16.7267
-16.629
-16.5131
-16.377
-16.2185
-16.0346
-15.8218
-15.576
-15.2929
-14.9677
-14.5957
-14.1722
-13.6933
-13.1558
-12.5579
-11.8996
-11.1832
-10.4134
-9.59803
-8.7475
-7.87491
-6.99542
-6.12552
-5.28196
-4.48049
-3.73467
-3.05485
-2.44767
-1.91587
-1.45875
-1.07277
-0.752416
-0.490987
-0.281271
-0.116055
0.0115222
0.107758
0.178275
0.227984
0.261098
0.281168
0.291151
0.293468
0.290078
0.282541
0.272085
0.259659
0.245982
0.231593
0.216883
0.202134
0.187533
0.173206
0.159229
0.145645
0.132472
0.11972
0.10739
0.0954894
0.0840147
0.0730185
0.0624461
0.0525451
0.0428798
0.0346434
0.0252713
0.0207803
0.00777431
0.0162472
-0.0204011
-14.6943
-14.7297
-14.7597
-14.7881
-14.8205
-14.861
-14.9137
-14.9828
-15.0711
-15.1787
-15.3044
-15.4452
-15.5967
-15.7541
-15.9125
-16.0671
-16.2135
-16.3483
-16.4686
-16.5723
-16.6584
-16.7263
-16.7759
-16.8073
-16.8211
-16.8177
-16.7976
-16.7613
-16.7088
-16.6402
-16.555
-16.4523
-16.3309
-16.1891
-16.0246
-15.8346
-15.6157
-15.3644
-15.0766
-14.7479
-14.374
-13.951
-13.4751
-12.9438
-12.3556
-11.7107
-11.0114
-10.2625
-9.47128
-8.64769
-7.80393
-6.95413
-6.11356
-5.29775
-4.5213
-3.79683
-3.13412
-2.53955
-2.01603
-1.56323
-1.17821
-0.856128
-0.590937
-0.376021
-0.204677
-0.0704549
0.0326225
0.10994
0.166241
0.205621
0.231563
0.246983
0.254288
0.25544
0.252015
0.245261
0.236154
0.225444
0.2137
0.201342
0.188678
0.175924
0.163228
0.150689
0.13837
0.126306
0.114524
0.103038
0.0918697
0.0810222
0.0705667
0.0604383
0.0509318
0.0415386
0.0336276
0.0243041
0.020286
0.00679967
0.0166337
-0.0223639
-14.6882
-14.7226
-14.7543
-14.7856
-14.8207
-14.8634
-14.9174
-14.9858
-15.0705
-15.1718
-15.2885
-15.418
-15.5567
-15.7006
-15.8453
-15.9866
-16.1206
-16.2442
-16.3546
-16.45
-16.529
-16.5908
-16.6353
-16.6622
-16.672
-16.6648
-16.6411
-16.601
-16.5447
-16.472
-16.3824
-16.275
-16.1486
-16.0015
-15.8314
-15.6359
-15.4117
-15.1556
-14.8638
-14.5324
-14.1575
-13.7354
-13.2632
-12.7383
-12.1599
-11.5283
-10.846
-10.1176
-9.34999
-8.55256
-7.73673
-6.91563
-6.1034
-5.31441
-4.56219
-3.85849
-3.21252
-2.63045
-2.11525
-1.66697
-1.2832
-0.959714
-0.691077
-0.471247
-0.294014
-0.153335
-0.0435516
0.04048
0.103326
0.148962
0.180792
0.201687
0.214035
0.219794
0.220552
0.217575
0.211866
0.204199
0.195174
0.185237
0.174725
0.163879
0.152872
0.141824
0.130818
0.119908
0.109136
0.0985297
0.0881269
0.0779365
0.0680486
0.0583888
0.0492972
0.0401964
0.0326217
0.0233676
0.0198093
0.00588938
0.0169876
-0.0241728
-14.6823
-14.7161
-14.7493
-14.7834
-14.8214
-14.8663
-14.9209
-14.9876
-15.0681
-15.1625
-15.2701
-15.3886
-15.515
-15.646
-15.7777
-15.9064
-16.0286
-16.1413
-16.2421
-16.329
-16.4006
-16.4561
-16.4951
-16.5173
-16.5229
-16.5118
-16.4844
-16.4407
-16.3806
-16.3038
-16.2099
-16.0979
-15.9666
-15.8144
-15.6392
-15.4386
-15.2097
-14.9494
-14.6542
-14.3207
-13.9454
-13.5249
-13.0567
-12.5388
-11.9704
-11.3523
-10.6868
-9.97844
-9.2339
-8.4619
-7.67313
-6.87976
-6.0949
-5.33182
-4.60306
-3.91955
-3.28997
-2.72024
-2.21342
-1.76985
-1.38761
-1.06303
-0.791261
-0.566808
-0.383937
-0.237
-0.120659
-0.0300149
0.0393172
0.0911857
0.12891
0.155309
0.172745
0.183169
0.188175
0.189047
0.186807
0.182257
0.176021
0.168575
0.16028
0.151403
0.142141
0.132635
0.12299
0.113277
0.103555
0.0938653
0.0842606
0.0747572
0.0654636
0.0562968
0.0476406
0.0388526
0.0316248
0.022462
0.0193486
0.00504538
0.0173028
-0.0258158
-14.6761
-14.7096
-14.7436
-14.7792
-14.8186
-14.8643
-14.9185
-14.9832
-15.0594
-15.1476
-15.2468
-15.3553
-15.4706
-15.5897
-15.7092
-15.826
-15.937
-16.0392
-16.1306
-16.209
-16.2733
-16.3225
-16.3559
-16.3732
-16.3743
-16.3592
-16.3278
-16.2802
-16.2162
-16.1354
-16.0373
-15.9208
-15.7849
-15.628
-15.448
-15.2428
-15.0096
-14.7457
-14.4478
-14.1128
-13.7376
-13.3193
-12.8557
-12.345
-11.7869
-11.1822
-10.5334
-9.84485
-9.12281
-8.37553
-7.61296
-6.84639
-6.08795
-5.34989
-4.64383
-3.97995
-3.3664
-2.80886
-2.31043
-1.87174
-1.49129
-1.16593
-0.891345
-0.662564
-0.47431
-0.321326
-0.198589
-0.101447
-0.0257009
0.0323643
0.0759766
0.107898
0.130459
0.145598
0.154913
0.159699
0.160997
0.159632
0.156254
0.151363
0.145348
0.138499
0.131037
0.123126
0.114888
0.106415
0.0977825
0.0890452
0.0802711
0.0714844
0.0628115
0.054162
0.0459614
0.0375068
0.0306359
0.021587
0.018902
0.00426912
0.0175742
-0.0272825
-14.6694
-14.7025
-14.7369
-14.7734
-14.8136
-14.8596
-14.9129
-14.975
-15.0471
-15.129
-15.2203
-15.3194
-15.4242
-15.532
-15.6402
-15.7457
-15.8459
-15.9381
-16.0202
-16.0904
-16.1473
-16.1899
-16.2176
-16.2298
-16.2263
-16.2069
-16.1715
-16.12
-16.052
-15.9672
-15.8648
-15.7441
-15.6037
-15.4423
-15.2579
-15.0485
-14.8116
-14.5445
-14.2445
-13.9086
-13.5342
-13.1186
-12.6599
-12.1569
-11.6093
-11.0181
-10.3858
-9.71665
-9.01658
-8.2933
-7.55608
-6.8154
-6.08244
-5.36855
-4.68444
-4.03962
-3.44172
-2.89621
-2.4062
-1.97254
-1.59412
-1.26827
-0.991186
-0.758372
-0.564997
-0.406186
-0.277226
-0.173714
-0.0916385
-0.0274247
0.0220589
0.0595107
0.0872241
0.107122
0.120799
0.129558
0.134458
0.136343
0.135888
0.133617
0.129941
0.125178
0.11957
0.113302
0.106518
0.0993269
0.0918216
0.0840717
0.07616
0.0681189
0.0600927
0.0519846
0.0442593
0.0361586
0.0296543
0.0207421
0.0184678
0.00356145
0.0177972
-0.0285635
-14.6621
-14.6948
-14.7291
-14.7659
-14.8062
-14.8516
-14.9035
-14.9629
-15.0306
-15.1066
-15.1904
-15.2807
-15.3757
-15.4731
-15.5705
-15.6654
-15.7552
-15.8377
-15.9109
-15.9729
-16.0225
-16.0586
-16.0804
-16.0873
-16.0791
-16.0553
-16.0157
-15.9601
-15.8881
-15.7992
-15.6928
-15.5679
-15.4233
-15.2577
-15.0693
-14.8561
-14.6159
-14.3462
-14.0446
-13.7084
-13.3351
-12.9227
-12.4695
-11.9744
-11.4375
-10.8598
-10.2438
-9.59371
-8.91505
-8.21507
-7.50238
-6.78667
-6.0783
-5.38771
-4.72483
-4.0985
-3.51589
-2.98223
-2.50063
-2.07213
-1.69598
-1.36993
-1.09064
-0.854089
-0.655862
-0.49145
-0.35645
-0.246706
-0.158399
-0.0880969
-0.0327704
0.0102098
0.0430946
0.0677853
0.0858693
0.0986565
0.107217
0.112414
0.114942
0.115351
0.114074
0.111451
0.107748
0.103172
0.0978853
0.0920173
0.0856769
0.0789484
0.07193
0.0646628
0.0573085
0.0497652
0.0425343
0.0348078
0.0286791
0.0199268
0.0180447
0.00292264
0.0179679
-0.0296518
-14.654
-14.6861
-14.7201
-14.7566
-14.7965
-14.8409
-14.8909
-14.9473
-15.0107
-15.081
-15.1576
-15.2396
-15.3254
-15.413
-15.5003
-15.5851
-15.6651
-15.7383
-15.8027
-15.8567
-15.899
-15.9285
-15.9444
-15.946
-15.9328
-15.9045
-15.8606
-15.8009
-15.7248
-15.6319
-15.5214
-15.3925
-15.2439
-15.0743
-14.8822
-14.6656
-14.4226
-14.1508
-13.8481
-13.5121
-13.1406
-12.7318
-12.2844
-11.7975
-11.2713
-10.7071
-10.1073
-9.4759
-8.81811
-8.14072
-7.45173
-6.76012
-6.07544
-5.40732
-4.76496
-4.15656
-3.58886
-3.06686
-2.59364
-2.17042
-1.79675
-1.47076
-1.18957
-0.949574
-0.746762
-0.576984
-0.436137
-0.320311
-0.225881
-0.149562
-0.088432
-0.039936
-0.00187057
0.0276391
0.0501696
0.0670321
0.0793061
0.0878718
0.0934414
0.0965862
0.0977628
0.0973333
0.0955852
0.0927467
0.089001
0.084495
0.0793552
0.0736808
0.0675855
0.0611193
0.0544611
0.0475052
0.0407872
0.0334545
0.0277099
0.0191405
0.0176311
0.00235242
0.0180838
-0.0305426
-14.645
-14.6764
-14.7098
-14.7456
-14.7846
-14.8276
-14.8754
-14.9286
-14.9876
-15.0522
-15.1222
-15.1963
-15.2735
-15.3519
-15.4297
-15.5049
-15.5755
-15.6397
-15.6956
-15.7418
-15.7769
-15.7998
-15.8097
-15.8058
-15.7876
-15.7546
-15.7064
-15.6425
-15.5623
-15.4654
-15.351
-15.2181
-15.0658
-14.8926
-14.697
-14.4775
-14.232
-13.9586
-13.6552
-13.3199
-12.9506
-12.5459
-12.1046
-11.6261
-11.1109
-10.5601
-9.97628
-9.36311
-8.72562
-8.07013
-7.40404
-6.73566
-6.0738
-5.42734
-4.80479
-4.21375
-3.66058
-3.15003
-2.68516
-2.26732
-1.89631
-1.57065
-1.28784
-1.04469
-0.837558
-0.662651
-0.516157
-0.394408
-0.293975
-0.211722
-0.14484
-0.090851
-0.0476053
-0.0132592
0.0137491
0.034728
0.0507637
0.0627491
0.0714136
0.0773482
0.0810305
0.0828441
0.0830982
0.0820415
0.0798772
0.0767705
0.0728656
0.0682765
0.0631324
0.057493
0.0515538
0.0452068
0.0390192
0.0320992
0.0267463
0.0183826
0.017226
0.00184992
0.018143
-0.0312334
-14.635
-14.6655
-14.698
-14.7329
-14.7706
-14.8118
-14.8571
-14.907
-14.9616
-15.0208
-15.0843
-15.1511
-15.2201
-15.2898
-15.3586
-15.4247
-15.4864
-15.542
-15.5897
-15.6282
-15.6562
-15.6725
-15.6764
-15.667
-15.6438
-15.606
-15.5533
-15.4851
-15.4009
-15.3
-15.1817
-15.0451
-14.8891
-14.7126
-14.514
-14.2918
-14.0443
-13.7697
-13.4662
-13.1319
-12.7653
-12.365
-11.9302
-11.4604
-10.9561
-10.4187
-9.85052
-9.25522
-8.63749
-8.0032
-7.35922
-6.71322
-6.07332
-5.44773
-4.84428
-4.27007
-3.73104
-3.23172
-2.77513
-2.36273
-1.99457
-1.66947
-1.38532
-1.13928
-0.928107
-0.748313
-0.596377
-0.468874
-0.362568
-0.274475
-0.201901
-0.142453
-0.0940371
-0.0548457
-0.0233363
0.00179322
0.0216322
0.0370836
0.0488917
0.0576655
0.0639021
0.068006
0.0703067
0.0710735
0.0705292
0.0688572
0.0662195
0.0627451
0.0585787
0.0537902
0.0485915
0.0428736
0.0372323
0.030743
0.0257887
0.0176529
0.0168287
0.00141381
0.0181453
-0.0317251
-14.6239
-14.6534
-14.6848
-14.7184
-14.7546
-14.7937
-14.8364
-14.8827
-14.933
-14.987
-15.0442
-15.104
-15.1653
-15.2269
-15.2872
-15.3447
-15.3979
-15.4451
-15.4849
-15.5159
-15.5369
-15.5468
-15.5447
-15.5297
-15.5013
-15.4588
-15.4016
-15.3291
-15.2408
-15.136
-15.014
-14.8737
-14.7143
-14.5346
-14.3333
-14.1088
-13.8597
-13.5843
-13.2811
-12.9484
-12.5848
-12.1893
-11.7611
-11.3001
-10.8068
-10.2827
-9.72999
-9.15215
-8.55361
-7.93983
-7.31719
-6.69274
-6.07398
-5.46846
-4.88344
-4.32549
-3.8002
-3.31188
-2.86349
-2.45658
-2.09141
-1.76711
-1.48186
-1.23322
-1.01827
-0.833827
-0.676661
-0.54358
-0.431539
-0.33771
-0.259516
-0.194653
-0.141086
-0.0970498
-0.0610242
-0.0317172
-0.00803986
0.0109183
0.0259138
0.0375719
0.0464078
0.0528453
0.0572343
0.0598636
0.0609754
0.0607713
0.0594308
0.0570984
0.0539343
0.050019
0.0455806
0.0405101
0.0354299
0.0293879
0.0248377
0.016951
0.0164388
0.00104239
0.0180915
-0.0320213
-14.6117
-14.6401
-14.6702
-14.7023
-14.7366
-14.7735
-14.8133
-14.8562
-14.9021
-14.9509
-15.0023
-15.0554
-15.1094
-15.1632
-15.2155
-15.2649
-15.3099
-15.3492
-15.3813
-15.405
-15.4192
-15.4226
-15.4145
-15.3941
-15.3605
-15.3131
-15.2514
-15.1747
-15.0823
-14.9737
-14.8479
-14.7042
-14.5416
-14.359
-14.1552
-13.9288
-13.6784
-13.4027
-13.1001
-12.7693
-12.4091
-12.0187
-11.5974
-11.1454
-10.6631
-10.1521
-9.6146
-9.0538
-8.4739
-7.87996
-7.27788
-6.67417
-6.07573
-5.48952
-4.92224
-4.38001
-3.86805
-3.39048
-2.95019
-2.54881
-2.18676
-1.86344
-1.57736
-1.32637
-1.10789
-0.919049
-0.756869
-0.61839
-0.500762
-0.40131
-0.317579
-0.247353
-0.188666
-0.139794
-0.0992451
-0.0657416
-0.0381975
-0.0156981
0.00252333
0.0171059
0.0285817
0.0373929
0.0439083
0.048436
0.0512372
0.0525315
0.0525161
0.0513507
0.0492114
0.0461897
0.0425291
0.0381227
0.0336164
0.0280366
0.0238951
0.0162775
0.0160562
0.000733755
0.0179843
-0.0321292
-14.5984
-14.6255
-14.6542
-14.6846
-14.7169
-14.7514
-14.7882
-14.8274
-14.8691
-14.913
-14.9586
-15.0054
-15.0525
-15.099
-15.1437
-15.1853
-15.2226
-15.2542
-15.279
-15.2956
-15.303
-15.3002
-15.2862
-15.2602
-15.2214
-15.1692
-15.103
-15.022
-14.9256
-14.8132
-14.6839
-14.5368
-14.3712
-14.186
-13.9799
-13.7519
-13.5007
-13.2249
-12.9233
-12.5948
-12.2384
-11.8533
-11.4392
-10.9961
-10.5249
-10.0269
-9.50426
-8.96009
-8.39826
-7.8235
-7.24123
-6.65747
-6.07855
-5.5109
-4.9607
-4.43363
-3.9346
-3.46751
-3.0352
-2.63934
-2.28053
-1.95837
-1.67167
-1.4186
-1.19684
-1.00384
-0.836856
-0.693167
-0.570106
-0.465154
-0.375976
-0.300451
-0.236682
-0.182993
-0.137923
-0.100211
-0.0687793
-0.0427106
-0.0212307
-0.00368846
0.0104633
0.0216838
0.03036
0.0368186
0.0413394
0.0441599
0.0454946
0.045519
0.0444246
0.0423143
0.0394471
0.0357194
0.0317979
0.0266936
0.0229637
0.0156334
0.0156822
0.00048598
0.0178277