/*--------------------------------*- C++ -*----------------------------------*\
| =========                 |                                                 |
| \\      /  F ield         | OpenFOAM: The Open Source CFD Toolbox           |
|  \\    /   O peration     | Version:  2.1.1                                 |
|   \\  /    A nd           | Web:      www.OpenFOAM.org                      |
|    \\/     M anipulation  |                                                 |
\*---------------------------------------------------------------------------*/
FoamFile
{
    version     2.0;
    format      ascii;
    class       surfaceScalarField;
    location    "0.085";
    object      phi;
}
// * * * * * * * * * * * * * * * * * * * * * * * * * * * * * * * * * * * * * //

dimensions      [0 3 -1 0 0 0 0];

internalField   nonuniform List<scalar> 
13452
(
6.89923e-05
-5.05001e-07
6.88134e-05
1.78854e-07
6.82018e-05
6.11619e-07
6.7254e-05
9.47766e-07
6.6177e-05
1.07705e-06
6.50848e-05
1.09217e-06
6.40193e-05
1.06555e-06
6.29976e-05
1.02164e-06
6.20282e-05
9.69397e-07
6.11145e-05
9.13716e-07
6.02575e-05
8.5702e-07
5.94567e-05
8.00761e-07
5.87108e-05
7.45889e-07
5.80178e-05
6.93073e-07
5.7375e-05
6.42764e-07
5.67797e-05
5.9525e-07
5.62291e-05
5.50692e-07
5.57199e-05
5.09155e-07
5.52493e-05
4.70633e-07
5.48142e-05
4.35071e-07
5.44118e-05
4.02388e-07
5.40393e-05
3.72491e-07
5.3694e-05
3.45297e-07
5.33733e-05
3.20757e-07
5.30744e-05
2.98884e-07
5.27946e-05
2.79817e-07
5.25307e-05
2.63905e-07
5.22786e-05
2.52075e-07
5.20328e-05
2.45816e-07
5.17821e-05
2.50705e-07
5.15084e-05
2.73644e-07
5.11612e-05
3.47226e-07
5.48425e-07
5.06128e-05
7.01649e-05
-2.26001e-07
7.00411e-05
3.02696e-07
7.01817e-05
4.71018e-07
7.0509e-05
6.20499e-07
7.08594e-05
7.26603e-07
7.11582e-05
7.9335e-07
7.13828e-05
8.40998e-07
7.15347e-05
8.69695e-07
7.1622e-05
8.82139e-07
7.16534e-05
8.82312e-07
7.16373e-05
8.73165e-07
7.1581e-05
8.5703e-07
7.14912e-05
8.35718e-07
7.13735e-05
8.10702e-07
7.12331e-05
7.83162e-07
7.10743e-05
7.54046e-07
7.09009e-05
7.24111e-07
7.07161e-05
6.93958e-07
7.05227e-05
6.64055e-07
7.0323e-05
6.3477e-07
7.0119e-05
6.06392e-07
6.99123e-05
5.79153e-07
6.97044e-05
5.53256e-07
6.94962e-05
5.28897e-07
6.92888e-05
5.0631e-07
6.90828e-05
4.85793e-07
6.88789e-05
4.67872e-07
6.86777e-05
4.53206e-07
6.848e-05
4.43546e-07
6.82909e-05
4.398e-07
6.81155e-05
4.49097e-07
6.80035e-05
4.59161e-07
5.00247e-07
6.80517e-05
7.22816e-05
-5.10645e-08
7.23967e-05
1.87587e-07
7.25015e-05
3.66253e-07
7.25879e-05
5.34069e-07
7.26711e-05
6.43428e-07
7.2753e-05
7.11448e-07
7.2839e-05
7.55006e-07
7.29255e-05
7.83163e-07
7.30085e-05
7.99098e-07
7.30855e-05
8.05364e-07
7.31547e-05
8.03921e-07
7.32154e-05
7.96346e-07
7.32672e-05
7.83927e-07
7.33101e-05
7.67785e-07
7.33444e-05
7.48873e-07
7.33705e-05
7.2799e-07
7.33888e-05
7.05799e-07
7.33999e-05
6.8285e-07
7.34044e-05
6.59593e-07
7.34027e-05
6.36395e-07
7.33956e-05
6.13566e-07
7.33833e-05
5.91368e-07
7.33666e-05
5.70044e-07
7.33456e-05
5.49832e-07
7.33209e-05
5.31013e-07
7.32928e-05
5.13916e-07
7.32616e-05
4.99063e-07
7.32278e-05
4.87012e-07
7.31922e-05
4.7914e-07
7.31565e-05
4.75541e-07
7.31243e-05
4.81211e-07
7.30983e-05
4.85212e-07
5.16975e-07
7.30816e-05
7.45185e-05
-4.29087e-08
7.44881e-05
2.17994e-07
7.44765e-05
3.77807e-07
7.45159e-05
4.94639e-07
7.4576e-05
5.83338e-07
7.46421e-05
6.45344e-07
7.47077e-05
6.8943e-07
7.47712e-05
7.19659e-07
7.48323e-05
7.3799e-07
7.48909e-05
7.46795e-07
7.49467e-05
7.48105e-07
7.49996e-05
7.43485e-07
7.50493e-05
7.34187e-07
7.50958e-05
7.2128e-07
7.5139e-05
7.05651e-07
7.5179e-05
6.8804e-07
7.52157e-05
6.69063e-07
7.52493e-05
6.49231e-07
7.528e-05
6.28967e-07
7.53077e-05
6.08624e-07
7.53328e-05
5.88502e-07
7.53553e-05
5.68862e-07
7.53754e-05
5.49949e-07
7.53932e-05
5.32003e-07
7.54089e-05
5.15298e-07
7.54227e-05
5.0014e-07
7.54348e-05
4.86966e-07
7.54456e-05
4.76186e-07
7.54561e-05
4.68661e-07
7.54675e-05
4.64204e-07
7.5484e-05
4.64713e-07
7.55057e-05
4.63485e-07
4.66669e-07
7.5556e-05
7.66035e-05
9.40883e-09
7.66281e-05
1.93382e-07
7.66645e-05
3.41497e-07
7.67024e-05
4.56657e-07
7.67406e-05
5.45167e-07
7.67799e-05
6.06063e-07
7.68215e-05
6.47808e-07
7.68651e-05
6.76116e-07
7.69095e-05
6.93594e-07
7.69539e-05
7.02395e-07
7.69977e-05
7.04294e-07
7.70405e-05
7.00668e-07
7.7082e-05
6.92647e-07
7.71221e-05
6.81202e-07
7.71606e-05
6.6715e-07
7.71975e-05
6.51178e-07
7.72327e-05
6.33861e-07
7.72662e-05
6.1568e-07
7.72981e-05
5.97037e-07
7.73285e-05
5.78271e-07
7.73573e-05
5.5967e-07
7.73847e-05
5.41489e-07
7.74107e-05
5.23964e-07
7.74354e-05
5.07325e-07
7.74588e-05
4.91822e-07
7.74813e-05
4.77717e-07
7.75029e-05
4.65344e-07
7.75241e-05
4.54966e-07
7.75457e-05
4.47043e-07
7.75687e-05
4.41211e-07
7.75954e-05
4.38019e-07
7.76258e-05
4.33108e-07
4.28579e-07
7.76639e-05
7.88311e-05
2.41792e-08
7.88387e-05
1.85809e-07
7.88568e-05
3.23452e-07
7.88855e-05
4.27945e-07
7.89216e-05
5.09037e-07
7.89605e-05
5.67146e-07
7.90003e-05
6.07993e-07
7.90404e-05
6.361e-07
7.90802e-05
6.53767e-07
7.91196e-05
6.62975e-07
7.91584e-05
6.65454e-07
7.91965e-05
6.62567e-07
7.92338e-05
6.55422e-07
7.927e-05
6.44955e-07
7.93052e-05
6.3195e-07
7.93393e-05
6.17066e-07
7.93723e-05
6.00853e-07
7.94042e-05
5.83772e-07
7.94351e-05
5.66211e-07
7.94648e-05
5.48495e-07
7.94936e-05
5.30904e-07
7.95214e-05
5.13684e-07
7.95483e-05
4.9706e-07
7.95744e-05
4.81247e-07
7.95998e-05
4.66461e-07
7.96246e-05
4.52916e-07
7.96491e-05
4.40845e-07
7.96736e-05
4.30392e-07
7.96989e-05
4.21737e-07
7.97257e-05
4.14474e-07
7.97552e-05
4.08462e-07
7.97873e-05
4.01035e-07
3.92243e-07
7.98236e-05
8.10847e-05
3.80006e-08
8.10947e-05
1.75868e-07
8.11181e-05
3.00064e-07
8.11486e-05
3.97396e-07
8.11831e-05
4.74546e-07
8.12189e-05
5.31378e-07
8.12552e-05
5.71673e-07
8.12918e-05
5.99443e-07
8.13285e-05
6.1708e-07
8.1365e-05
6.26525e-07
8.1401e-05
6.2944e-07
8.14364e-05
6.27142e-07
8.14711e-05
6.207e-07
8.15051e-05
6.11013e-07
8.15382e-05
5.98838e-07
8.15705e-05
5.84807e-07
8.16019e-05
5.69452e-07
8.16324e-05
5.53218e-07
8.16621e-05
5.36479e-07
8.16911e-05
5.19552e-07
8.17193e-05
5.02708e-07
8.17468e-05
4.86182e-07
8.17737e-05
4.70187e-07
8.18e-05
4.54917e-07
8.18259e-05
4.40557e-07
8.18515e-05
4.27273e-07
8.18772e-05
4.15217e-07
8.19031e-05
4.04446e-07
8.19299e-05
3.94973e-07
8.19579e-05
3.86414e-07
8.1988e-05
3.78404e-07
8.20197e-05
3.69327e-07
3.58798e-07
8.20531e-05
8.34101e-05
4.34719e-08
8.342e-05
1.65975e-07
8.34407e-05
2.79306e-07
8.34681e-05
3.69972e-07
8.35004e-05
4.42333e-07
8.35349e-05
4.96805e-07
8.35705e-05
5.36091e-07
8.36064e-05
5.63506e-07
8.36423e-05
5.81236e-07
8.36778e-05
5.91046e-07
8.37127e-05
5.94485e-07
8.3747e-05
5.92816e-07
8.37807e-05
5.87075e-07
8.38136e-05
5.78134e-07
8.38457e-05
5.66726e-07
8.3877e-05
5.53467e-07
8.39076e-05
5.38873e-07
8.39374e-05
5.23376e-07
8.39666e-05
5.0734e-07
8.3995e-05
4.91073e-07
8.40229e-05
4.74837e-07
8.40502e-05
4.58858e-07
8.40771e-05
4.43334e-07
8.41036e-05
4.2844e-07
8.41298e-05
4.14331e-07
8.41559e-05
4.01131e-07
8.41822e-05
3.88932e-07
8.42089e-05
3.77738e-07
8.42364e-05
3.67478e-07
8.4265e-05
3.57824e-07
8.4295e-05
3.48392e-07
8.43261e-05
3.3822e-07
3.26944e-07
8.4358e-05
8.57963e-05
4.58798e-08
8.58061e-05
1.56165e-07
8.58263e-05
2.59149e-07
8.58529e-05
3.43322e-07
8.58841e-05
4.11161e-07
8.59177e-05
4.63241e-07
8.59523e-05
5.01423e-07
8.59875e-05
5.28368e-07
8.60226e-05
5.46065e-07
8.60576e-05
5.56142e-07
8.6092e-05
5.60039e-07
8.61259e-05
5.58955e-07
8.61591e-05
5.5388e-07
8.61915e-05
5.45652e-07
8.62233e-05
5.34978e-07
8.62543e-05
5.2245e-07
8.62846e-05
5.08569e-07
8.63142e-05
4.93754e-07
8.63432e-05
4.7836e-07
8.63716e-05
4.62683e-07
8.63995e-05
4.46978e-07
8.64269e-05
4.31459e-07
8.64539e-05
4.1631e-07
8.64806e-05
4.01688e-07
8.65072e-05
3.87722e-07
8.65339e-05
3.74505e-07
8.65607e-05
3.62089e-07
8.6588e-05
3.50449e-07
8.6616e-05
3.39485e-07
8.66449e-05
3.28937e-07
8.66748e-05
3.18487e-07
8.67054e-05
3.07576e-07
2.95973e-07
8.67364e-05
8.82501e-05
4.5818e-08
8.82601e-05
1.46171e-07
8.82793e-05
2.39951e-07
8.83046e-05
3.18022e-07
8.83343e-05
3.81447e-07
8.83667e-05
4.30845e-07
8.84005e-05
4.67585e-07
8.84351e-05
4.9381e-07
8.84698e-05
5.11292e-07
8.85045e-05
5.21509e-07
8.85387e-05
5.25775e-07
8.85725e-05
5.2521e-07
8.86056e-05
5.2075e-07
8.86381e-05
5.13193e-07
8.86698e-05
5.03213e-07
8.87009e-05
4.91381e-07
8.87313e-05
4.78177e-07
8.8761e-05
4.64007e-07
8.87902e-05
4.49213e-07
8.88188e-05
4.34082e-07
8.88469e-05
4.18857e-07
8.88746e-05
4.03741e-07
8.8902e-05
3.88906e-07
8.89292e-05
3.74492e-07
8.89563e-05
3.60606e-07
8.89835e-05
3.4732e-07
8.9011e-05
3.34662e-07
8.90388e-05
3.22597e-07
8.90673e-05
3.11026e-07
8.90964e-05
2.99755e-07
8.91264e-05
2.88552e-07
8.91569e-05
2.77102e-07
2.65293e-07
8.91875e-05
9.07727e-05
4.43782e-08
9.07827e-05
1.36206e-07
9.0801e-05
2.21652e-07
9.08252e-05
2.93824e-07
9.08537e-05
3.5291e-07
9.08851e-05
3.99478e-07
9.09181e-05
4.34568e-07
9.09521e-05
4.59883e-07
9.09864e-05
4.76976e-07
9.10207e-05
4.87176e-07
9.10548e-05
4.9168e-07
9.10885e-05
4.91525e-07
9.11216e-05
4.87591e-07
9.11542e-05
4.80631e-07
9.11861e-05
4.71283e-07
9.12174e-05
4.60093e-07
9.12481e-05
4.47519e-07
9.12781e-05
4.33951e-07
9.13076e-05
4.19716e-07
9.13366e-05
4.05089e-07
9.13652e-05
3.90302e-07
9.13934e-05
3.75546e-07
9.14213e-05
3.6098e-07
9.14491e-05
3.46729e-07
9.14768e-05
3.32887e-07
9.15046e-05
3.19509e-07
9.15327e-05
3.0661e-07
9.15611e-05
2.94159e-07
9.159e-05
2.82072e-07
9.16196e-05
2.70212e-07
9.16497e-05
2.58425e-07
9.16803e-05
2.46541e-07
2.34527e-07
9.1711e-05
9.33669e-05
4.21053e-08
9.33768e-05
1.26291e-07
9.33943e-05
2.0417e-07
9.34175e-05
2.70687e-07
9.34448e-05
3.25536e-07
9.34751e-05
3.69175e-07
9.35073e-05
4.0242e-07
9.35405e-05
4.2663e-07
9.35744e-05
4.4315e-07
9.36084e-05
4.5317e-07
9.36423e-05
4.57772e-07
9.36759e-05
4.57908e-07
9.37091e-05
4.54398e-07
9.37418e-05
4.47946e-07
9.37739e-05
4.39156e-07
9.38054e-05
4.28542e-07
9.38364e-05
4.1654e-07
9.38669e-05
4.03522e-07
9.38968e-05
3.89798e-07
9.39262e-05
3.7563e-07
9.39553e-05
3.61238e-07
9.3984e-05
3.46801e-07
9.40126e-05
3.32466e-07
9.40409e-05
3.18347e-07
9.40693e-05
3.04523e-07
9.40978e-05
2.91043e-07
9.41265e-05
2.77919e-07
9.41555e-05
2.65124e-07
9.4185e-05
2.52597e-07
9.42149e-05
2.40247e-07
9.42454e-05
2.27977e-07
9.42762e-05
2.15703e-07
2.03436e-07
9.43073e-05
9.60348e-05
3.93808e-08
9.60446e-05
1.16513e-07
9.60613e-05
1.87452e-07
9.60835e-05
2.48537e-07
9.61098e-05
2.99234e-07
9.61391e-05
3.39879e-07
9.61703e-05
3.71127e-07
9.62029e-05
3.94068e-07
9.62362e-05
4.09854e-07
9.62698e-05
4.19543e-07
9.63035e-05
4.24105e-07
9.6337e-05
4.2441e-07
9.63702e-05
4.21215e-07
9.6403e-05
4.15177e-07
9.64352e-05
4.0686e-07
9.6467e-05
3.96747e-07
9.64983e-05
3.85253e-07
9.65291e-05
3.72725e-07
9.65595e-05
3.59459e-07
9.65894e-05
3.45702e-07
9.6619e-05
3.31661e-07
9.66483e-05
3.17504e-07
9.66774e-05
3.03366e-07
9.67064e-05
2.89351e-07
9.67354e-05
2.7553e-07
9.67645e-05
2.61947e-07
9.67938e-05
2.48614e-07
9.68234e-05
2.35513e-07
9.68534e-05
2.22605e-07
9.68838e-05
2.09833e-07
9.69146e-05
1.97141e-07
9.69458e-05
1.84489e-07
1.71912e-07
9.69773e-05
9.87787e-05
3.64324e-08
9.87883e-05
1.06925e-07
9.88043e-05
1.7143e-07
9.88255e-05
2.273e-07
9.88508e-05
2.73931e-07
9.88792e-05
3.11548e-07
9.89096e-05
3.40681e-07
9.89415e-05
3.6221e-07
9.89742e-05
3.77115e-07
9.90074e-05
3.86328e-07
9.90408e-05
3.90719e-07
9.90741e-05
3.91073e-07
9.91073e-05
3.88087e-07
9.91401e-05
3.82367e-07
9.91725e-05
3.74438e-07
9.92045e-05
3.64752e-07
9.9236e-05
3.53696e-07
9.92672e-05
3.41599e-07
9.92979e-05
3.28737e-07
9.93283e-05
3.15344e-07
9.93583e-05
3.01611e-07
9.93881e-05
2.87697e-07
9.94178e-05
2.73725e-07
9.94473e-05
2.59792e-07
9.94769e-05
2.45963e-07
9.95065e-05
2.32279e-07
9.95364e-05
2.18754e-07
9.95665e-05
2.05382e-07
9.9597e-05
1.92138e-07
9.96278e-05
1.7899e-07
9.96591e-05
1.6591e-07
9.96907e-05
1.52881e-07
1.39944e-07
9.97227e-05
0.000101601
3.34e-08
0.00010161
9.75677e-08
0.000101626
1.56051e-07
0.000101646
2.06908e-07
0.00010167
2.49556e-07
0.000101698
2.84128e-07
0.000101727
3.11053e-07
0.000101759
3.31048e-07
0.000101791
3.44941e-07
0.000101823
3.5355e-07
0.000101857
3.57645e-07
0.00010189
3.57936e-07
0.000101923
3.55055e-07
0.000101956
3.49561e-07
0.000101988
3.41937e-07
0.00010202
3.32604e-07
0.000102052
3.21921e-07
0.000102083
3.10196e-07
0.000102114
2.97686e-07
0.000102145
2.8461e-07
0.000102176
2.71147e-07
0.000102206
2.57442e-07
0.000102236
2.43612e-07
0.000102266
2.29744e-07
0.000102296
2.15901e-07
0.000102326
2.02121e-07
0.000102357
1.88424e-07
0.000102387
1.74809e-07
0.000102418
1.61265e-07
0.000102449
1.47778e-07
0.000102481
1.34333e-07
0.000102513
1.20927e-07
1.07599e-07
0.000102545
0.000104503
3.03651e-08
0.000104513
8.84669e-08
0.000104527
1.41262e-07
0.000104547
1.87295e-07
0.00010457
2.2604e-07
0.000104597
2.57564e-07
0.000104626
2.82212e-07
0.000104656
3.00569e-07
0.000104688
3.13334e-07
0.00010472
3.21219e-07
0.000104753
3.24905e-07
0.000104786
3.25025e-07
0.000104819
3.22153e-07
0.000104852
3.16796e-07
0.000104884
3.09398e-07
0.000104916
3.00347e-07
0.000104948
2.89976e-07
0.00010498
2.78567e-07
0.000105011
2.66362e-07
0.000105042
2.53562e-07
0.000105073
2.40334e-07
0.000105104
2.26812e-07
0.000105134
2.13104e-07
0.000105165
1.99292e-07
0.000105195
1.85434e-07
0.000105226
1.71569e-07
0.000105256
1.57718e-07
0.000105287
1.43889e-07
0.000105319
1.30079e-07
0.00010535
1.16282e-07
0.000105382
1.02496e-07
0.000105414
8.87212e-08
7.49929e-08
0.000105447
0.000107489
2.73738e-08
0.000107498
7.9635e-08
0.000107512
1.27018e-07
0.000107531
1.68398e-07
0.000107554
2.0332e-07
0.000107579
2.31801e-07
0.000107608
2.54118e-07
0.000107637
2.7075e-07
0.000107668
2.82286e-07
0.0001077
2.8934e-07
0.000107733
2.92512e-07
0.000107765
2.92363e-07
0.000107798
2.89408e-07
0.000107831
2.84106e-07
0.000107863
2.76861e-07
0.000107896
2.68026e-07
0.000107928
2.57908e-07
0.000107959
2.46766e-07
0.000107991
2.34823e-07
0.000108022
2.22264e-07
0.000108053
2.09243e-07
0.000108084
1.95884e-07
0.000108115
1.82287e-07
0.000108146
1.68527e-07
0.000108177
1.5466e-07
0.000108208
1.40725e-07
0.000108239
1.26744e-07
0.00010827
1.1273e-07
0.000108301
9.8686e-08
0.000108333
8.46142e-08
0.000108365
7.05155e-08
0.000108397
5.63917e-08
4.22753e-08
0.00010843
0.00011056
2.44501e-08
0.000110568
7.10744e-08
0.000110582
1.13276e-07
0.0001106
1.50158e-07
0.000110622
1.81331e-07
0.000110647
2.06782e-07
0.000110675
2.26729e-07
0.000110704
2.41564e-07
0.000110734
2.51782e-07
0.000110766
2.57911e-07
0.000110798
2.60474e-07
0.00011083
2.59965e-07
0.000110863
2.56843e-07
0.000110895
2.51519e-07
0.000110928
2.44358e-07
0.00011096
2.3568e-07
0.000110992
2.25763e-07
0.000111024
2.14845e-07
0.000111056
2.03128e-07
0.000111088
1.90781e-07
0.000111119
1.77946e-07
0.00011115
1.64737e-07
0.000111181
1.51246e-07
0.000111212
1.37542e-07
0.000111243
1.23679e-07
0.000111274
1.09694e-07
0.000111305
9.56117e-08
0.000111336
8.14468e-08
0.000111368
6.72078e-08
0.0001114
5.28996e-08
0.000111432
3.8526e-08
0.000111464
2.40887e-08
9.61811e-09
0.000111497
0.000113718
2.16049e-08
0.000113727
6.27794e-08
0.00011374
9.99976e-08
0.000113758
1.3252e-07
0.000113779
1.60017e-07
0.000113803
1.82453e-07
0.00011383
2e-07
0.000113859
2.12978e-07
0.000113888
2.21802e-07
0.000113919
2.26922e-07
0.000113951
2.28791e-07
0.000113983
2.27841e-07
0.000114016
2.24476e-07
0.000114048
2.19062e-07
0.000114081
2.11924e-07
0.000114113
2.03349e-07
0.000114145
1.93588e-07
0.000114177
1.82856e-07
0.000114209
1.71335e-07
0.00011424
1.5918e-07
0.000114272
1.46518e-07
0.000114303
1.33454e-07
0.000114334
1.20071e-07
0.000114365
1.06436e-07
0.000114397
9.25961e-08
0.000114428
7.8589e-08
0.000114459
6.44395e-08
0.00011449
5.01645e-08
0.000114521
3.57748e-08
0.000114553
2.12776e-08
0.000114585
6.67818e-09
0.000114617
-8.02194e-09
-2.27932e-08
0.000114649
0.000116967
1.88411e-08
0.000116975
5.47391e-08
0.000116988
8.71441e-08
0.000117005
1.15431e-07
0.000117026
1.39318e-07
0.000117049
1.58759e-07
0.000117076
1.73884e-07
0.000117104
1.84957e-07
0.000117133
1.92322e-07
0.000117164
1.9636e-07
0.000117195
1.97459e-07
0.000117227
1.95996e-07
0.000117259
1.92321e-07
0.000117291
1.86755e-07
0.000117324
1.79586e-07
0.000117356
1.7107e-07
0.000117388
1.61427e-07
0.00011742
1.50851e-07
0.000117452
1.39505e-07
0.000117484
1.27528e-07
0.000117515
1.15034e-07
0.000117546
1.02118e-07
0.000117578
8.88558e-08
0.000117609
7.53074e-08
0.00011764
6.15189e-08
0.000117671
4.75249e-08
0.000117702
3.33505e-08
0.000117733
1.90135e-08
0.000117764
4.52624e-09
0.000117796
-1.01026e-08
0.000117827
-2.48667e-08
0.000117859
-3.97645e-08
-5.47658e-08
0.000117891
0.000120309
1.61574e-08
0.000120317
4.69386e-08
0.000120329
7.46797e-08
0.000120346
9.8841e-08
0.000120366
1.1918e-07
0.000120389
1.35644e-07
0.000120414
1.48333e-07
0.000120442
1.5746e-07
0.000120471
1.63311e-07
0.000120501
1.66204e-07
0.000120532
1.66469e-07
0.000120564
1.64429e-07
0.000120596
1.60385e-07
0.000120628
1.54616e-07
0.00012066
1.47372e-07
0.000120692
1.38876e-07
0.000120724
1.29324e-07
0.000120756
1.18883e-07
0.000120788
1.07699e-07
0.00012082
9.58945e-08
0.000120851
8.3572e-08
0.000120882
7.08157e-08
0.000120914
5.76938e-08
0.000120945
4.42608e-08
0.000120976
3.05594e-08
0.000121006
1.6622e-08
0.000121037
2.47311e-09
0.000121068
-1.18691e-08
0.000121099
-2.63915e-08
0.00012113
-4.10843e-08
0.000121161
-5.59401e-08
0.000121192
-7.09566e-08
-8.61025e-08
0.000121224
0.000123746
1.35497e-08
0.000123753
3.93614e-08
0.000123765
6.257e-08
0.000123782
8.27023e-08
0.000123801
9.95481e-08
0.000123824
1.13055e-07
0.000123849
1.23296e-07
0.000123876
1.30445e-07
0.000123904
1.34733e-07
0.000123934
1.36428e-07
0.000123965
1.35805e-07
0.000123996
1.33135e-07
0.000124028
1.28674e-07
0.00012406
1.22659e-07
0.000124092
1.15305e-07
0.000124124
1.06802e-07
0.000124156
9.73181e-08
0.000124188
8.70006e-08
0.00012422
7.5975e-08
0.000124251
6.43481e-08
0.000124283
5.22098e-08
0.000124314
3.9634e-08
0.000124345
2.66816e-08
0.000124376
1.34011e-08
0.000124406
-1.68509e-10
0.000124437
-1.3997e-08
0.000124467
-2.8061e-08
0.000124498
-4.23426e-08
0.000124528
-5.6828e-08
0.000124559
-7.15065e-08
0.000124589
-8.63699e-08
0.00012462
-1.01415e-07
-1.16607e-07
0.00012465
0.000127281
1.10126e-08
0.000127288
3.19891e-08
0.0001273
5.078e-08
0.000127316
6.69663e-08
0.000127335
8.03662e-08
0.000127357
9.09305e-08
0.000127382
9.8715e-08
0.000127408
1.0386e-07
0.000127437
1.06548e-07
0.000127466
1.07e-07
0.000127496
1.05444e-07
0.000127527
1.02103e-07
0.000127559
9.71868e-08
0.000127591
9.08937e-08
0.000127623
8.34035e-08
0.000127655
7.48754e-08
0.000127686
6.54513e-08
0.000127718
5.52546e-08
0.00012775
4.4393e-08
0.000127781
3.29577e-08
0.000127812
2.10258e-08
0.000127843
8.66108e-09
0.000127874
-4.08346e-09
0.000127905
-1.71651e-08
0.000127935
-3.05488e-08
0.000127965
-4.4207e-08
0.000127995
-5.81178e-08
0.000128025
-7.22635e-08
0.000128055
-8.66303e-08
0.000128085
-1.01207e-07
0.000128114
-1.15983e-07
0.000128144
-1.30954e-07
-1.46084e-07
0.000128173
0.000130917
8.54181e-09
0.000130925
2.48068e-08
0.000130936
3.92822e-08
0.000130951
5.15934e-08
0.00013097
6.15856e-08
0.000130992
6.92183e-08
0.000131016
7.45358e-08
0.000131042
7.76531e-08
0.00013107
7.87047e-08
0.000131099
7.78758e-08
0.000131129
7.53516e-08
0.00013116
7.13063e-08
0.000131191
6.59082e-08
0.000131223
5.93162e-08
0.000131255
5.16765e-08
0.000131286
4.31169e-08
0.000131318
3.37536e-08
0.00013135
2.36867e-08
0.000131381
1.30064e-08
0.000131412
1.78716e-09
0.000131443
-9.90503e-09
0.000131474
-2.2018e-08
0.000131504
-3.45062e-08
0.000131535
-4.73327e-08
0.000131564
-6.04669e-08
0.000131594
-7.38841e-08
0.000131624
-8.75638e-08
0.000131653
-1.01489e-07
0.000131682
-1.15646e-07
0.000131711
-1.30023e-07
0.000131739
-1.44609e-07
0.000131768
-1.59397e-07
-1.74349e-07
0.000131796
0.000134658
6.12777e-09
0.000134665
1.779e-08
0.000134676
2.80338e-08
0.000134691
3.65234e-08
0.000134709
4.31348e-08
0.000134731
4.78419e-08
0.000134755
5.0684e-08
0.00013478
5.17619e-08
0.000134808
5.11515e-08
0.000134837
4.9017e-08
0.000134867
4.54995e-08
0.000134897
4.07283e-08
0.000134928
3.48307e-08
0.00013496
2.79311e-08
0.000134991
2.014e-08
0.000135023
1.15517e-08
0.000135054
2.26236e-09
0.000135086
-7.6576e-09
0.000135117
-1.81302e-08
0.000135148
-2.90977e-08
0.000135178
-4.05084e-08
0.000135209
-5.23192e-08
0.000135239
-6.44929e-08
0.000135268
-7.69986e-08
0.000135298
-8.98105e-08
0.000135327
-1.02907e-07
0.000135355
-1.16269e-07
0.000135384
-1.29881e-07
0.000135412
-1.43729e-07
0.00013544
-1.578e-07
0.000135467
-1.72083e-07
0.000135494
-1.86568e-07
-2.01217e-07
0.000135521
0.000138505
3.78306e-09
0.000138511
1.09558e-08
0.000138522
1.70481e-08
0.000138537
2.17544e-08
0.000138555
2.49892e-08
0.000138576
2.67532e-08
0.0001386
2.70952e-08
0.000138626
2.6105e-08
0.000138653
2.37809e-08
0.000138682
2.03229e-08
0.000138711
1.58023e-08
0.000138742
1.03008e-08
0.000138773
3.89896e-09
0.000138804
-3.30679e-09
0.000138835
-1.12308e-08
0.000138867
-1.98268e-08
0.000138898
-2.90195e-08
0.000138929
-3.87541e-08
0.00013896
-4.89775e-08
0.000138991
-5.96454e-08
0.000139021
-7.07192e-08
0.000139051
-8.21654e-08
0.00013908
-9.39554e-08
0.000139109
-1.06064e-07
0.000139138
-1.18471e-07
0.000139166
-1.31157e-07
0.000139194
-1.44105e-07
0.000139221
-1.57302e-07
0.000139248
-1.70734e-07
0.000139275
-1.84386e-07
0.000139301
-1.98248e-07
0.000139327
-2.12309e-07
-2.26528e-07
0.000139352
0.000142462
1.44859e-09
0.000142468
4.21163e-09
0.000142479
6.20428e-09
0.000142494
7.15536e-09
0.000142512
7.02487e-09
0.000142533
5.83974e-09
0.000142556
3.67244e-09
0.000142581
7.06547e-10
0.000142609
-3.39844e-09
0.000142637
-8.20253e-09
0.000142667
-1.3745e-08
0.000142697
-1.99829e-08
0.000142728
-2.68717e-08
0.000142759
-3.43642e-08
0.00014279
-4.24171e-08
0.000142821
-5.0995e-08
0.000142852
-6.00563e-08
0.000142883
-6.95659e-08
0.000142914
-7.94914e-08
0.000142944
-8.98036e-08
0.000142973
-1.00477e-07
0.000143003
-1.11488e-07
0.000143032
-1.22816e-07
0.00014306
-1.34443e-07
0.000143088
-1.46354e-07
0.000143115
-1.58531e-07
0.000143142
-1.70963e-07
0.000143168
-1.83635e-07
0.000143194
-1.96534e-07
0.00014322
-2.09649e-07
0.000143244
-2.22963e-07
0.000143268
-2.36468e-07
-2.50122e-07
0.000143292
0.000146531
-6.83522e-10
0.000146538
-2.18122e-09
0.000146548
-4.25157e-09
0.000146563
-7.12265e-09
0.00014658
-1.07274e-08
0.000146601
-1.49576e-08
0.000146625
-1.97244e-08
0.00014665
-2.49551e-08
0.000146677
-3.06923e-08
0.000146706
-3.68215e-08
0.000146736
-4.33553e-08
0.000146766
-5.02975e-08
0.000146797
-5.76426e-08
0.000146828
-6.53832e-08
0.000146859
-7.35092e-08
0.00014689
-8.2012e-08
0.000146921
-9.08795e-08
0.000146951
-1.00098e-07
0.000146981
-1.09655e-07
0.000147011
-1.19536e-07
0.00014704
-1.29728e-07
0.000147069
-1.40218e-07
0.000147097
-1.50994e-07
0.000147125
-1.62043e-07
0.000147152
-1.73355e-07
0.000147178
-1.84918e-07
0.000147204
-1.96721e-07
0.000147229
-2.08752e-07
0.000147254
-2.20999e-07
0.000147277
-2.3345e-07
0.000147301
-2.46091e-07
0.000147323
-2.5891e-07
-2.71867e-07
0.000147345
0.000150718
-3.16133e-09
0.000150725
-8.82922e-09
0.000150735
-1.48319e-08
0.00015075
-2.13835e-08
0.000150767
-2.83594e-08
0.000150788
-3.55912e-08
0.000150811
-4.29513e-08
0.000150837
-5.03523e-08
0.000150864
-5.78082e-08
0.000150892
-6.53023e-08
0.000150922
-7.28574e-08
0.000150952
-8.05148e-08
0.000150983
-8.83119e-08
0.000151013
-9.62813e-08
0.000151044
-1.0445e-07
0.000151075
-1.12839e-07
0.000151106
-1.21464e-07
0.000151136
-1.30334e-07
0.000151166
-1.39455e-07
0.000151195
-1.48829e-07
0.000151224
-1.58457e-07
0.000151252
-1.68335e-07
0.000151279
-1.78461e-07
0.000151306
-1.8883e-07
0.000151332
-1.99435e-07
0.000151358
-2.10268e-07
0.000151382
-2.21323e-07
0.000151406
-2.32588e-07
0.000151429
-2.44055e-07
0.000151451
-2.55709e-07
0.000151473
-2.67539e-07
0.000151493
-2.79532e-07
-2.91647e-07
0.000151513
0.000155023
-4.43378e-09
0.000155028
-1.41276e-08
0.000155038
-2.44411e-08
0.000155052
-3.5329e-08
0.00015507
-4.6263e-08
0.000155091
-5.68847e-08
0.000155115
-6.70243e-08
0.000155141
-7.66397e-08
0.000155169
-8.57857e-08
0.000155199
-9.45327e-08
0.000155229
-1.02971e-07
0.000155259
-1.11198e-07
0.00015529
-1.19305e-07
0.000155321
-1.27368e-07
0.000155352
-1.35451e-07
0.000155383
-1.43605e-07
0.000155414
-1.51871e-07
0.000155444
-1.6028e-07
0.000155473
-1.68856e-07
0.000155502
-1.77615e-07
0.00015553
-1.8657e-07
0.000155557
-1.95728e-07
0.000155584
-2.05093e-07
0.00015561
-2.14666e-07
0.000155635
-2.24447e-07
0.000155659
-2.34432e-07
0.000155682
-2.44615e-07
0.000155705
-2.5499e-07
0.000155726
-2.65547e-07
0.000155747
-2.76276e-07
0.000155766
-2.87164e-07
0.000155785
-2.98202e-07
-3.09348e-07
0.000155803
0.000159454
-8.32299e-09
0.000159462
-2.12482e-08
0.000159472
-3.47729e-08
0.000159486
-4.8915e-08
0.000159502
-6.32047e-08
0.000159523
-7.70537e-08
0.000159546
-9.00664e-08
0.000159571
-1.02091e-07
0.000159599
-1.13152e-07
0.000159627
-1.23354e-07
0.000159657
-1.32837e-07
0.000159688
-1.41753e-07
0.000159719
-1.50244e-07
0.00015975
-1.58434e-07
0.000159781
-1.66431e-07
0.000159811
-1.74322e-07
0.000159842
-1.8218e-07
0.000159872
-1.90061e-07
0.000159901
-1.98009e-07
0.000159929
-2.06059e-07
0.000159957
-2.14237e-07
0.000159984
-2.22561e-07
0.00016001
-2.31046e-07
0.000160035
-2.39699e-07
0.000160059
-2.48526e-07
0.000160082
-2.57527e-07
0.000160104
-2.66702e-07
0.000160125
-2.76045e-07
0.000160145
-2.8555e-07
0.000160164
-2.95208e-07
0.000160182
-3.05007e-07
0.000160198
-3.14936e-07
-3.24959e-07
0.000160214
0.000164003
-5.68591e-09
0.000164005
-2.30598e-08
0.000164013
-4.29805e-08
0.000164028
-6.35436e-08
0.000164048
-8.30793e-08
0.000164072
-1.00843e-07
0.000164098
-1.16681e-07
0.000164127
-1.30713e-07
0.000164157
-1.4316e-07
0.000164188
-1.54269e-07
0.000164219
-1.64284e-07
0.000164251
-1.73433e-07
0.000164283
-1.81919e-07
0.000164314
-1.8991e-07
0.000164345
-1.97548e-07
0.000164376
-2.04949e-07
0.000164406
-2.12204e-07
0.000164435
-2.19389e-07
0.000164464
-2.26561e-07
0.000164492
-2.33767e-07
0.000164518
-2.41042e-07
0.000164544
-2.48412e-07
0.000164569
-2.55899e-07
0.000164593
-2.63517e-07
0.000164616
-2.71273e-07
0.000164637
-2.79174e-07
0.000164658
-2.87222e-07
0.000164677
-2.95414e-07
0.000164695
-3.03745e-07
0.000164712
-3.1221e-07
0.000164728
-3.20798e-07
0.000164743
-3.29502e-07
-3.38286e-07
0.000164756
0.000168701
-1.51465e-08
0.000168709
-3.1157e-08
0.000168717
-5.07587e-08
0.000168727
-7.32383e-08
0.000168741
-9.67978e-08
0.000168759
-1.19136e-07
0.000168781
-1.39065e-07
0.000168807
-1.56379e-07
0.000168835
-1.71309e-07
0.000168865
-1.84193e-07
0.000168896
-1.95385e-07
0.000168928
-2.05219e-07
0.00016896
-2.13991e-07
0.000168992
-2.21948e-07
0.000169024
-2.29296e-07
0.000169055
-2.36202e-07
0.000169086
-2.42798e-07
0.000169115
-2.49192e-07
0.000169144
-2.55467e-07
0.000169172
-2.61688e-07
0.000169199
-2.67908e-07
0.000169225
-2.74165e-07
0.000169249
-2.80488e-07
0.000169273
-2.86901e-07
0.000169295
-2.93417e-07
0.000169316
-3.00048e-07
0.000169335
-3.06799e-07
0.000169354
-3.13671e-07
0.000169371
-3.20663e-07
0.000169386
-3.2777e-07
0.0001694
-3.34984e-07
0.000169413
-3.42297e-07
-3.49681e-07
0.000169424
0.000173491
4.9685e-09
0.000173485
-2.47851e-08
0.000173495
-6.04819e-08
0.000173516
-9.47046e-08
0.000173544
-1.2482e-07
0.000173575
-1.50278e-07
0.000173608
-1.71719e-07
0.000173641
-1.89732e-07
0.000173675
-2.04889e-07
0.000173708
-2.17696e-07
0.000173741
-2.28609e-07
0.000173774
-2.38021e-07
0.000173807
-2.46259e-07
0.000173838
-2.53587e-07
0.000173869
-2.6022e-07
0.000173899
-2.66332e-07
0.000173929
-2.72062e-07
0.000173957
-2.77522e-07
0.000173984
-2.82799e-07
0.00017401
-2.87965e-07
0.000174036
-2.93075e-07
0.00017406
-2.98173e-07
0.000174082
-3.03292e-07
0.000174104
-3.08459e-07
0.000174124
-3.13691e-07
0.000174143
-3.19004e-07
0.000174161
-3.24404e-07
0.000174177
-3.29898e-07
0.000174192
-3.35485e-07
0.000174205
-3.41165e-07
0.000174217
-3.46931e-07
0.000174228
-3.52779e-07
-3.58681e-07
0.000174237
0.000178498
-2.44063e-08
0.0001785
-2.72143e-08
0.000178489
-4.94357e-08
0.000178481
-8.59682e-08
0.000178483
-1.27213e-07
0.000178496
-1.63768e-07
0.000178518
-1.9355e-07
0.000178546
-2.17248e-07
0.000178577
-2.36196e-07
0.000178611
-2.51394e-07
0.000178646
-2.6365e-07
0.000178681
-2.73636e-07
0.000178717
-2.81889e-07
0.000178752
-2.88825e-07
0.000178787
-2.94771e-07
0.000178821
-2.9998e-07
0.000178853
-3.04648e-07
0.000178885
-3.08927e-07
0.000178915
-3.12933e-07
0.000178943
-3.16758e-07
0.000178971
-3.20472e-07
0.000178997
-3.24129e-07
0.000179021
-3.2777e-07
0.000179044
-3.31427e-07
0.000179066
-3.35124e-07
0.000179086
-3.38878e-07
0.000179104
-3.427e-07
0.000179121
-3.46598e-07
0.000179136
-3.50575e-07
0.000179149
-3.54631e-07
0.000179161
-3.58766e-07
0.000179171
-3.62975e-07
-3.67239e-07
0.00017918
0.000183487
5.64064e-08
0.000183465
-5.22276e-09
0.000183501
-8.53452e-08
0.000183553
-1.37981e-07
0.000183604
-1.78346e-07
0.00018365
-2.0974e-07
0.000183691
-2.3474e-07
0.000183729
-2.5518e-07
0.000183764
-2.7179e-07
0.000183798
-2.8527e-07
0.000183831
-2.96287e-07
0.000183863
-3.05358e-07
0.000183894
-3.12885e-07
0.000183924
-3.19191e-07
0.000183954
-3.24534e-07
0.000183983
-3.29122e-07
0.000184011
-3.33121e-07
0.000184039
-3.36662e-07
0.000184066
-3.39853e-07
0.000184092
-3.42778e-07
0.000184117
-3.45507e-07
0.000184141
-3.48096e-07
0.000184164
-3.50588e-07
0.000184185
-3.53021e-07
0.000184206
-3.55422e-07
0.000184225
-3.57814e-07
0.000184242
-3.60214e-07
0.000184258
-3.62634e-07
0.000184273
-3.65084e-07
0.000184286
-3.67567e-07
0.000184297
-3.70086e-07
0.000184307
-3.72639e-07
-3.75215e-07
0.000184315
0.000188861
7.54343e-09
0.000188796
5.98646e-08
0.00018871
2.85801e-10
0.000188646
-7.42611e-08
0.000188628
-1.59931e-07
0.000188641
-2.23246e-07
0.000188674
-2.66933e-07
0.000188716
-2.97946e-07
0.000188765
-3.20508e-07
0.000188817
-3.3721e-07
0.00018887
-3.49696e-07
0.000188924
-3.59096e-07
0.000188978
-3.66213e-07
0.00018903
-3.71621e-07
0.000189081
-3.75741e-07
0.000189131
-3.78882e-07
0.000189179
-3.81273e-07
0.000189226
-3.83092e-07
0.00018927
-3.84472e-07
0.000189313
-3.85518e-07