/*--------------------------------*- C++ -*----------------------------------*\
| =========                 |                                                 |
| \\      /  F ield         | OpenFOAM: The Open Source CFD Toolbox           |
|  \\    /   O peration     | Version:  2.1.1                                 |
|   \\  /    A nd           | Web:      www.OpenFOAM.org                      |
|    \\/     M anipulation  |                                                 |
\*---------------------------------------------------------------------------*/
FoamFile
{
    version     2.0;
    format      ascii;
    class       volVectorField;
    location    "0.085";
    object      U;
}
// * * * * * * * * * * * * * * * * * * * * * * * * * * * * * * * * * * * * * //

dimensions      [0 1 -1 0 0 0 0];

internalField   nonuniform List<vector> 
6820
(
(8.34337 -0.360077 0)
(8.4011 -0.247154 0)
(8.3561 -0.115294 0)
(8.2478 -0.0365577 0)
(8.11936 0.0060087 0)
(7.98592 0.027872 0)
(7.8538 0.0386443 0)
(7.72638 0.0433475 0)
(7.60507 0.0446231 0)
(7.49041 0.0439282 0)
(7.38264 0.0421044 0)
(7.28178 0.0396564 0)
(7.18771 0.0368954 0)
(7.1002 0.0340173 0)
(7.01898 0.0311461 0)
(6.94372 0.0283596 0)
(6.87407 0.0257055 0)
(6.80966 0.0232113 0)
(6.75012 0.0208911 0)
(6.69508 0.0187501 0)
(6.6442 0.0167881 0)
(6.59712 0.0150018 0)
(6.55352 0.013387 0)
(6.51306 0.0119404 0)
(6.47543 0.0106622 0)
(6.4403 0.00955986 0)
(6.40732 0.00865268 0)
(6.37604 0.00799684 0)
(6.34596 0.00768872 0)
(6.31615 0.00802147 0)
(6.28485 0.00980391 0)
(6.24965 0.0135625 0)
(6.19928 0.0332105 0)
(8.32139 0.16625 0)
(8.28709 0.190002 0)
(8.28544 0.132155 0)
(8.31741 0.0958552 0)
(8.36171 0.0750192 0)
(8.40177 0.0623583 0)
(8.43287 0.0548773 0)
(8.45496 0.050357 0)
(8.46891 0.0474562 0)
(8.47571 0.0454618 0)
(8.47641 0.0439789 0)
(8.47195 0.04277 0)
(8.46315 0.0416965 0)
(8.45074 0.0406815 0)
(8.43535 0.0396849 0)
(8.41755 0.0386884 0)
(8.39781 0.0376865 0)
(8.37654 0.0366808 0)
(8.3541 0.0356767 0)
(8.33079 0.0346818 0)
(8.30686 0.0337047 0)
(8.28253 0.032755 0)
(8.25797 0.0318435 0)
(8.23333 0.0309836 0)
(8.20872 0.0301934 0)
(8.18425 0.0294994 0)
(8.15999 0.0289456 0)
(8.13598 0.0286105 0)
(8.11245 0.028625 0)
(8.08912 0.0293485 0)
(8.06826 0.0311111 0)
(8.04684 0.0361695 0)
(8.04718 0.0440303 0)
(8.3225 -0.0608855 0)
(8.31398 -0.0832814 0)
(8.33051 -0.0540957 0)
(8.34432 -0.0202976 0)
(8.3532 0.00241386 0)
(8.36222 0.0165422 0)
(8.37195 0.0257845 0)
(8.38197 0.0320061 0)
(8.39181 0.0362307 0)
(8.40107 0.0391039 0)
(8.40951 0.0410205 0)
(8.417 0.0422248 0)
(8.42348 0.0428912 0)
(8.42893 0.043151 0)
(8.43336 0.0431043 0)
(8.43683 0.0428278 0)
(8.43937 0.0423815 0)
(8.44105 0.0418129 0)
(8.44193 0.0411598 0)
(8.44208 0.0404527 0)
(8.44156 0.039717 0)
(8.44044 0.0389742 0)
(8.43876 0.0382444 0)
(8.43658 0.0375473 0)
(8.43395 0.0369062 0)
(8.4309 0.0363486 0)
(8.42749 0.0359203 0)
(8.42373 0.0356677 0)
(8.41974 0.0357372 0)
(8.41553 0.0360923 0)
(8.41165 0.0374481 0)
(8.4079 0.0378299 0)
(8.40593 0.0416494 0)
(8.33365 0.0145641 0)
(8.32977 0.0477014 0)
(8.32737 0.0539748 0)
(8.3287 0.0465626 0)
(8.33459 0.0410668 0)
(8.34211 0.0385667 0)
(8.3496 0.0377608 0)
(8.35681 0.0377213 0)
(8.36379 0.0379473 0)
(8.37049 0.0382187 0)
(8.37689 0.0384373 0)
(8.38298 0.0385621 0)
(8.38872 0.0385839 0)
(8.39411 0.0385066 0)
(8.39912 0.038339 0)
(8.40378 0.0380929 0)
(8.40806 0.0377814 0)
(8.41199 0.0374179 0)
(8.41558 0.0370156 0)
(8.41885 0.0365875 0)
(8.4218 0.0361463 0)
(8.42445 0.0357052 0)
(8.42683 0.0352783 0)
(8.42895 0.0348817 0)
(8.43082 0.0345361 0)
(8.43247 0.0342674 0)
(8.43391 0.0341151 0)
(8.43517 0.034125 0)
(8.43636 0.0343828 0)
(8.43749 0.0349299 0)
(8.43904 0.0359442 0)
(8.44093 0.0370992 0)
(8.44466 0.0389138 0)
(8.3302 -0.00530974 0)
(8.32722 -0.00750524 0)
(8.33137 -0.00244654 0)
(8.33604 0.00804337 0)
(8.34011 0.017221 0)
(8.34427 0.0234418 0)
(8.34867 0.0276306 0)
(8.35331 0.0305995 0)
(8.35812 0.0327502 0)
(8.36297 0.0343151 0)
(8.36777 0.0354396 0)
(8.37249 0.0362186 0)
(8.37708 0.0367191 0)
(8.38152 0.036993 0)
(8.3858 0.0370835 0)
(8.3899 0.037027 0)
(8.39381 0.0368545 0)
(8.39755 0.0365928 0)
(8.40111 0.0362649 0)
(8.4045 0.0358912 0)
(8.40771 0.0354898 0)
(8.41077 0.035078 0)
(8.41366 0.0346727 0)
(8.41642 0.0342919 0)
(8.41903 0.0339564 0)
(8.42152 0.0336901 0)
(8.42391 0.0335259 0)
(8.42623 0.0334945 0)
(8.42854 0.0336533 0)
(8.43092 0.0339857 0)
(8.43359 0.0345974 0)
(8.43661 0.0350297 0)
(8.44036 0.0356013 0)
(8.33238 0.00228763 0)
(8.33118 0.0133142 0)
(8.33279 0.0204051 0)
(8.33549 0.0238009 0)
(8.33893 0.0259589 0)
(8.34297 0.0277721 0)
(8.34718 0.029455 0)
(8.35141 0.0309565 0)
(8.35564 0.0321964 0)
(8.35983 0.0331641 0)
(8.36397 0.033882 0)
(8.36804 0.0343786 0)
(8.37203 0.034683 0)
(8.37591 0.0348247 0)
(8.37969 0.0348315 0)
(8.38335 0.034728 0)
(8.3869 0.0345364 0)
(8.39033 0.0342762 0)
(8.39365 0.0339652 0)
(8.39685 0.0336194 0)
(8.39994 0.0332537 0)
(8.40293 0.0328826 0)
(8.40582 0.0325207 0)
(8.40862 0.0321838 0)
(8.41134 0.0318895 0)
(8.41398 0.0316576 0)
(8.41658 0.0315123 0)
(8.41916 0.0314741 0)
(8.42178 0.0315715 0)
(8.4245 0.0317854 0)
(8.42746 0.0321256 0)
(8.43069 0.0323474 0)
(8.43431 0.0324814 0)
(8.33232 0.000875951 0)
(8.33152 0.00579441 0)
(8.3334 0.0107772 0)
(8.33644 0.0155834 0)
(8.33983 0.0199756 0)
(8.34347 0.0234937 0)
(8.3472 0.0261846 0)
(8.35095 0.0282435 0)
(8.35473 0.0298076 0)
(8.35849 0.0309795 0)
(8.36222 0.0318368 0)
(8.36589 0.0324358 0)
(8.3695 0.0328205 0)
(8.37303 0.0330277 0)
(8.37648 0.0330886 0)
(8.37984 0.0330303 0)
(8.38311 0.0328763 0)
(8.38629 0.0326474 0)
(8.38939 0.0323622 0)
(8.3924 0.0320371 0)
(8.39534 0.0316876 0)
(8.3982 0.0313283 0)
(8.40099 0.0309734 0)
(8.40372 0.0306379 0)
(8.4064 0.0303372 0)
(8.40904 0.0300875 0)
(8.41167 0.0299061 0)
(8.41431 0.029805 0)
(8.41701 0.0297954 0)
(8.41981 0.0298532 0)
(8.42278 0.029959 0)
(8.42595 0.0299549 0)
(8.42932 0.0298072 0)
(8.33272 0.00171328 0)
(8.33255 0.00730067 0)
(8.33416 0.012602 0)
(8.33674 0.016875 0)
(8.33976 0.0203345 0)
(8.34313 0.0230686 0)
(8.34667 0.0252411 0)
(8.35025 0.0269859 0)
(8.35385 0.028363 0)
(8.35742 0.0294193 0)
(8.36094 0.0302012 0)
(8.3644 0.0307496 0)
(8.3678 0.0311 0)
(8.37112 0.0312841 0)
(8.37437 0.0313301 0)
(8.37754 0.0312628 0)
(8.38063 0.031104 0)
(8.38365 0.0308731 0)
(8.38659 0.0305874 0)
(8.38947 0.0302625 0)
(8.39228 0.0299128 0)
(8.39504 0.0295518 0)
(8.39774 0.0291925 0)
(8.4004 0.0288481 0)
(8.40303 0.0285315 0)
(8.40565 0.028255 0)
(8.40826 0.0280302 0)
(8.4109 0.0278629 0)
(8.4136 0.0277542 0)
(8.41639 0.0276815 0)
(8.41931 0.0276167 0)
(8.42237 0.0274649 0)
(8.42553 0.0271888 0)
(8.33284 0.00179283 0)
(8.33293 0.00647501 0)
(8.33442 0.0109998 0)
(8.33683 0.0149016 0)
(8.33968 0.018281 0)
(8.34286 0.02109 0)
(8.3462 0.0233556 0)
(8.3496 0.0251615 0)
(8.35302 0.0265737 0)
(8.35643 0.0276509 0)
(8.3598 0.0284471 0)
(8.36312 0.0290072 0)
(8.36638 0.0293686 0)
(8.36957 0.0295634 0)
(8.37269 0.0296197 0)
(8.37574 0.0295619 0)
(8.37872 0.0294115 0)
(8.38163 0.0291873 0)
(8.38447 0.0289062 0)
(8.38726 0.0285832 0)
(8.38999 0.0282322 0)
(8.39267 0.0278659 0)
(8.39531 0.0274965 0)
(8.39792 0.0271352 0)
(8.40051 0.026793 0)
(8.40309 0.0264792 0)
(8.40568 0.0262011 0)
(8.4083 0.0259608 0)
(8.41098 0.0257544 0)
(8.41374 0.0255626 0)
(8.41659 0.0253597 0)
(8.41954 0.0250889 0)
(8.42254 0.024723 0)
(8.33294 0.00183524 0)
(8.33323 0.00615412 0)
(8.33462 0.0103766 0)
(8.33682 0.0140553 0)
(8.33946 0.0172067 0)
(8.34242 0.0198198 0)
(8.34557 0.0219354 0)
(8.34881 0.0236334 0)
(8.3521 0.0249742 0)
(8.35538 0.0260065 0)
(8.35864 0.026775 0)
(8.36185 0.0273186 0)
(8.36501 0.0276707 0)
(8.36811 0.027861 0)
(8.37114 0.0279156 0)
(8.37411 0.0278575 0)
(8.37701 0.027707 0)
(8.37985 0.0274821 0)
(8.38263 0.0271989 0)
(8.38536 0.0268716 0)
(8.38803 0.0265132 0)
(8.39067 0.0261356 0)
(8.39327 0.0257496 0)
(8.39584 0.0253652 0)
(8.3984 0.0249911 0)
(8.40096 0.0246344 0)
(8.40354 0.0242994 0)
(8.40614 0.0239859 0)
(8.4088 0.0236887 0)
(8.41152 0.0233923 0)
(8.41431 0.0230769 0)
(8.41716 0.0227094 0)
(8.42006 0.0222749 0)
(8.33299 0.00179916 0)
(8.33338 0.00572927 0)
(8.33468 0.00955249 0)
(8.3367 0.0129337 0)
(8.33916 0.0158643 0)
(8.34194 0.0183368 0)
(8.34492 0.0203687 0)
(8.348 0.0220127 0)
(8.35115 0.0233174 0)
(8.3543 0.0243256 0)
(8.35745 0.0250784 0)
(8.36057 0.0256122 0)
(8.36364 0.0259592 0)
(8.36665 0.0261474 0)
(8.36962 0.0262018 0)
(8.37252 0.0261441 0)
(8.37536 0.0259939 0)
(8.37815 0.025768 0)
(8.38088 0.0254818 0)
(8.38356 0.0251488 0)
(8.3862 0.0247811 0)
(8.38881 0.0243897 0)
(8.39138 0.0239841 0)
(8.39394 0.0235731 0)
(8.39648 0.0231637 0)
(8.39902 0.0227611 0)
(8.40159 0.0223679 0)
(8.40417 0.021983 0)
(8.40681 0.0216011 0)
(8.40949 0.0212107 0)
(8.41223 0.0207979 0)
(8.41502 0.0203442 0)
(8.41784 0.019843 0)
(8.33302 0.00172188 0)
(8.33346 0.00532719 0)
(8.33469 0.00882251 0)
(8.33655 0.0119522 0)
(8.33884 0.0146809 0)
(8.34144 0.016999 0)
(8.34424 0.0189172 0)
(8.34718 0.0204764 0)
(8.35018 0.021719 0)
(8.35322 0.0226833 0)
(8.35625 0.0234055 0)
(8.35927 0.0239187 0)
(8.36225 0.0242519 0)
(8.3652 0.024431 0)
(8.36809 0.0244793 0)
(8.37093 0.0244171 0)
(8.37372 0.0242625 0)
(8.37646 0.0240316 0)
(8.37915 0.0237386 0)
(8.3818 0.0233962 0)
(8.38441 0.0230155 0)
(8.38699 0.0226065 0)
(8.38955 0.0221778 0)
(8.39208 0.0217366 0)
(8.39461 0.0212888 0)
(8.39715 0.0208383 0)
(8.39969 0.0203867 0)
(8.40227 0.0199324 0)
(8.40488 0.0194709 0)
(8.40753 0.0189944 0)
(8.41022 0.0184935 0)
(8.41296 0.0179582 0)
(8.41573 0.0173875 0)
(8.33303 0.00162042 0)
(8.3335 0.00492541 0)
(8.33465 0.00811116 0)
(8.33638 0.0109878 0)
(8.33851 0.0135113 0)
(8.34094 0.0156715 0)
(8.34359 0.0174741 0)
(8.34637 0.0189482 0)
(8.34924 0.0201282 0)
(8.35215 0.0210468 0)
(8.35508 0.0217358 0)
(8.35799 0.0222247 0)
(8.36089 0.0225404 0)
(8.36375 0.0227068 0)
(8.36658 0.0227453 0)
(8.36936 0.022675 0)
(8.3721 0.0225128 0)
(8.37479 0.0222736 0)
(8.37744 0.0219707 0)
(8.38006 0.0216157 0)
(8.38264 0.021219 0)
(8.38519 0.0207894 0)
(8.38772 0.0203345 0)
(8.39024 0.0198606 0)
(8.39275 0.0193724 0)
(8.39527 0.0188729 0)
(8.3978 0.018363 0)
(8.40036 0.0178413 0)
(8.40294 0.0173045 0)
(8.40556 0.016747 0)
(8.40822 0.016163 0)
(8.41091 0.0155475 0)
(8.41363 0.0149016 0)
(8.33304 0.00150641 0)
(8.3335 0.00453156 0)
(8.33459 0.00743337 0)
(8.33619 0.0100707 0)
(8.33818 0.0123971 0)
(8.34046 0.0144001 0)
(8.34296 0.0160815 0)
(8.3456 0.0174624 0)
(8.34833 0.0185709 0)
(8.35112 0.0194351 0)
(8.35394 0.0200828 0)
(8.35676 0.0205406 0)
(8.35956 0.0208325 0)
(8.36235 0.0209805 0)
(8.3651 0.0210041 0)
(8.36782 0.0209211 0)
(8.3705 0.0207469 0)
(8.37314 0.0204954 0)
(8.37575 0.0201788 0)
(8.37833 0.0198077 0)
(8.38087 0.0193915 0)
(8.3834 0.0189381 0)
(8.3859 0.0184542 0)
(8.3884 0.0179451 0)
(8.39089 0.0174147 0)
(8.39339 0.0168652 0)
(8.3959 0.0162974 0)
(8.39842 0.01571 0)
(8.40098 0.0151005 0)
(8.40356 0.0144654 0)
(8.40618 0.013801 0)
(8.40883 0.0131046 0)
(8.41151 0.0123784 0)
(8.33304 0.00138684 0)
(8.33349 0.00414645 0)
(8.33451 0.00678251 0)
(8.33601 0.00918898 0)
(8.33787 0.0113215 0)
(8.34001 0.013166 0)
(8.34236 0.0147222 0)
(8.34487 0.016005 0)
(8.34747 0.0170368 0)
(8.35014 0.0178413 0)
(8.35285 0.0184427 0)
(8.35557 0.0188643 0)
(8.35829 0.0191276 0)
(8.36099 0.0192526 0)
(8.36367 0.0192571 0)
(8.36632 0.0191572 0)
(8.36894 0.0189671 0)
(8.37153 0.0186997 0)
(8.37409 0.0183659 0)
(8.37663 0.0179754 0)
(8.37914 0.0175367 0)
(8.38162 0.0170568 0)
(8.3841 0.0165415 0)
(8.38656 0.0159952 0)
(8.38903 0.0154213 0)
(8.3915 0.0148214 0)
(8.39397 0.014196 0)
(8.39647 0.0135443 0)
(8.39899 0.0128644 0)
(8.40153 0.0121539 0)
(8.40411 0.0114103 0)
(8.40671 0.0106323 0)
(8.40935 0.00982182 0)
(8.33304 0.00126589 0)
(8.33348 0.00377153 0)
(8.33444 0.00615735 0)
(8.33583 0.00834207 0)
(8.33757 0.0102854 0)
(8.33958 0.0119724 0)
(8.3418 0.0134009 0)
(8.34418 0.0145812 0)
(8.34666 0.015531 0)
(8.34922 0.0162703 0)
(8.35182 0.0168196 0)
(8.35444 0.0171995 0)
(8.35707 0.0174292 0)
(8.35969 0.0175264 0)
(8.36229 0.0175072 0)
(8.36488 0.0173863 0)
(8.36744 0.0171766 0)
(8.36997 0.0168896 0)
(8.37248 0.0165354 0)
(8.37497 0.0161225 0)
(8.37743 0.0156586 0)
(8.37988 0.0151497 0)
(8.38232 0.0146009 0)
(8.38475 0.0140161 0)
(8.38718 0.0133977 0)
(8.38961 0.0127472 0)
(8.39205 0.012065 0)
(8.3945 0.0113503 0)
(8.39698 0.0106018 0)
(8.39948 0.00981758 0)
(8.402 0.00899602 0)
(8.40456 0.00813591 0)
(8.40714 0.00723899 0)
(8.33304 0.00114598 0)
(8.33345 0.00340745 0)
(8.33436 0.00555567 0)
(8.33566 0.00752664 0)
(8.33729 0.00928481 0)
(8.33918 0.010815 0)
(8.34128 0.0121137 0)
(8.34354 0.0131879 0)
(8.3459 0.0140513 0)
(8.34835 0.0147205 0)
(8.35085 0.015213 0)
(8.35337 0.0155465 0)
(8.35591 0.0157379 0)
(8.35845 0.0158031 0)
(8.36098 0.0157563 0)
(8.3635 0.0156107 0)
(8.36599 0.0153778 0)
(8.36847 0.0150681 0)
(8.37092 0.0146905 0)
(8.37336 0.0142526 0)
(8.37578 0.0137612 0)
(8.37818 0.0132215 0)
(8.38057 0.0126378 0)
(8.38296 0.0120134 0)
(8.38534 0.0113502 0)
(8.38773 0.0106495 0)
(8.39013 0.00991145 0)
(8.39253 0.00913534 0)
(8.39496 0.00832004 0)
(8.3974 0.00746407 0)
(8.39987 0.006566 0)
(8.40236 0.00562454 0)
(8.40488 0.00464093 0)
(8.33304 0.00102839 0)
(8.33343 0.00305447 0)
(8.33428 0.0049757 0)
(8.3355 0.00674031 0)
(8.33703 0.00831735 0)
(8.33881 0.00969193 0)
(8.3408 0.0108596 0)
(8.34294 0.0118247 0)
(8.3452 0.012598 0)
(8.34754 0.0131928 0)
(8.34994 0.013624 0)
(8.35237 0.0139067 0)
(8.35482 0.0140557 0)
(8.35728 0.0140847 0)
(8.35973 0.0140066 0)
(8.36218 0.0138328 0)
(8.36461 0.0135737 0)
(8.36702 0.0132384 0)
(8.36942 0.0128349 0)
(8.3718 0.0123699 0)
(8.37417 0.0118491 0)
(8.37652 0.0112772 0)
(8.37886 0.0106578 0)
(8.3812 0.0099934 0)
(8.38353 0.00928576 0)
(8.38587 0.00853565 0)
(8.38821 0.00774309 0)
(8.39056 0.00690747 0)
(8.39293 0.00602767 0)
(8.39531 0.00510233 0)
(8.39771 0.00413003 0)
(8.40013 0.00310924 0)
(8.40258 0.0020407 0)
(8.33303 0.000913781 0)
(8.33341 0.00271246 0)
(8.3342 0.00441573 0)
(8.33535 0.00598059 0)
(8.33679 0.00738025 0)
(8.33847 0.0086005 0)
(8.34035 0.00963622 0)
(8.34239 0.01049 0)
(8.34454 0.0111698 0)
(8.34678 0.0116864 0)
(8.34909 0.0120523 0)
(8.35143 0.0122803 0)
(8.35379 0.0123829 0)
(8.35617 0.0123722 0)
(8.35855 0.0122593 0)
(8.36092 0.0120543 0)
(8.36329 0.0117662 0)
(8.36564 0.0114029 0)
(8.36798 0.0109715 0)
(8.3703 0.0104777 0)
(8.37261 0.00992639 0)
(8.37491 0.00932149 0)
(8.37719 0.00866597 0)
(8.37948 0.00796191 0)
(8.38175 0.00721058 0)
(8.38403 0.00641248 0)
(8.38631 0.00556746 0)
(8.3886 0.00467481 0)
(8.3909 0.00373341 0)
(8.39321 0.00274188 0)
(8.39553 0.00169867 0)
(8.39787 0.000602003 0)
(8.40024 -0.000547753 0)
(8.33303 0.000802388 0)
(8.33338 0.00238108 0)
(8.33413 0.00387417 0)
(8.33522 0.00524524 0)
(8.33657 0.00647109 0)
(8.33816 0.00753844 0)
(8.33995 0.00844182 0)
(8.34188 0.00918242 0)
(8.34394 0.00976607 0)
(8.34608 0.0102014 0)
(8.34829 0.0104986 0)
(8.35055 0.0106684 0)
(8.35283 0.0107214 0)
(8.35513 0.0106679 0)
(8.35743 0.0105173 0)
(8.35974 0.0102785 0)
(8.36203 0.00995908 0)
(8.36432 0.00956597 0)
(8.36659 0.00910506 0)
(8.36886 0.0085813 0)
(8.3711 0.00799877 0)
(8.37334 0.00736068 0)
(8.37557 0.0066694 0)
(8.37779 0.00592654 0)
(8.38 0.00513297 0)
(8.38222 0.00428892 0)
(8.38443 0.00339405 0)
(8.38665 0.00244752 0)
(8.38887 0.00144814 0)
(8.3911 0.000394451 0)
(8.39334 -0.000715225 0)
(8.39559 -0.00188291 0)
(8.39786 -0.00310846 0)
(8.33303 0.000694223 0)
(8.33336 0.00205975 0)
(8.33407 0.00334948 0)
(8.33509 0.00453201 0)
(8.33637 0.00558727 0)
(8.33788 0.00650302 0)
(8.33957 0.00727371 0)
(8.34142 0.00789949 0)
(8.34338 0.00838453 0)
(8.34543 0.00873559 0)
(8.34756 0.00896088 0)
(8.34973 0.00906922 0)
(8.35193 0.00906948 0)
(8.35415 0.00897023 0)
(8.35638 0.0087795 0)
(8.35861 0.0085046 0)
(8.36084 0.00815207 0)
(8.36306 0.00772766 0)
(8.36527 0.00723628 0)
(8.36747 0.00668204 0)
(8.36965 0.00606824 0)
(8.37183 0.00539743 0)
(8.37399 0.00467144 0)
(8.37614 0.00389139 0)
(8.37829 0.00305781 0)
(8.38043 0.00217065 0)
(8.38257 0.00122936 0)
(8.38471 0.000232978 0)
(8.38685 -0.000819793 0)
(8.38899 -0.00193052 0)
(8.39114 -0.00310096 0)
(8.3933 -0.00433333 0)
(8.39546 -0.00562757 0)
(8.33303 0.000589169 0)
(8.33334 0.00174785 0)
(8.33401 0.00284024 0)
(8.33498 0.00383905 0)
(8.33619 0.00472688 0)
(8.33762 0.0054927 0)
(8.33923 0.00613106 0)
(8.34099 0.00664138 0)
(8.34286 0.00702644 0)
(8.34483 0.0072914 0)
(8.34687 0.00744274 0)
(8.34896 0.00748751 0)
(8.35109 0.0074329 0)
(8.35324 0.00728594 0)
(8.35539 0.00705321 0)
(8.35755 0.00674072 0)
(8.35971 0.00635383 0)
(8.36186 0.00589722 0)
(8.36401 0.00537489 0)
(8.36614 0.00479011 0)
(8.36826 0.00414548 0)
(8.37036 0.00344292 0)
(8.37246 0.00268374 0)
(8.37454 0.00186863 0)
(8.37661 0.000997773 0)
(8.37868 7.08571e-05 0)
(8.38074 -0.000912853 0)
(8.38279 -0.00195445 0)
(8.38484 -0.00305534 0)
(8.38689 -0.00421715 0)
(8.38894 -0.00544174 0)
(8.39099 -0.00673137 0)
(8.39304 -0.00808602 0)
(8.33303 0.00048703 0)
(8.33332 0.0014446 0)
(8.33396 0.00234478 0)
(8.33487 0.00316362 0)
(8.33602 0.00388605 0)
(8.33738 0.00450232 0)
(8.33891 0.00500733 0)
(8.3406 0.00540015 0)
(8.34239 0.00568247 0)
(8.34428 0.00585827 0)
(8.34625 0.00593263 0)
(8.34826 0.00591104 0)
(8.35031 0.00579911 0)
(8.35238 0.00560236 0)
(8.35447 0.00532602 0)
(8.35656 0.00497481 0)
(8.35865 0.00455295 0)
(8.36073 0.00406406 0)
(8.36281 0.00351123 0)
(8.36487 0.00289692 0)
(8.36692 0.00222304 0)
(8.36895 0.00149088 0)
(8.37097 0.000701255 0)
(8.37298 -0.000145538 0)
(8.37498 -0.00104965 0)
(8.37696 -0.00201165 0)
(8.37893 -0.00303245 0)
(8.38089 -0.00411326 0)
(8.38285 -0.00525557 0)
(8.3848 -0.00646107 0)
(8.38674 -0.00773162 0)
(8.38867 -0.00906949 0)
(8.39061 -0.0104746 0)
(8.33303 0.000387615 0)
(8.33331 0.00114953 0)
(8.33391 0.00186268 0)
(8.33477 0.00250617 0)
(8.33587 0.00306713 0)
(8.33716 0.00353712 0)
(8.33863 0.00391142 0)
(8.34024 0.00418882 0)
(8.34196 0.00436979 0)
(8.34378 0.00445715 0)
(8.34567 0.00445461 0)
(8.34761 0.00436624 0)
(8.34959 0.0041963 0)
(8.35159 0.00394901 0)
(8.35361 0.00362832 0)
(8.35563 0.00323767 0)
(8.35765 0.00278032 0)
(8.35967 0.00225888 0)
(8.36167 0.00167565 0)
(8.36366 0.00103239 0)
(8.36564 0.000330312 0)
(8.3676 -0.000429796 0)
(8.36955 -0.00124759 0)
(8.37147 -0.00212315 0)
(8.37339 -0.00305691 0)
(8.37528 -0.00404967 0)
(8.37716 -0.0051025 0)
(8.37903 -0.00621672 0)
(8.38089 -0.00739387 0)
(8.38273 -0.00863566 0)
(8.38455 -0.00994393 0)
(8.38637 -0.0113209 0)
(8.38817 -0.0127663 0)
(8.33303 0.000290611 0)
(8.33329 0.000860966 0)
(8.33386 0.00138937 0)
(8.33469 0.00185718 0)
(8.33573 0.00225375 0)
(8.33697 0.00257251 0)
(8.33837 0.00280992 0)
(8.33992 0.00296516 0)
(8.34157 0.0030381 0)
(8.34333 0.00303186 0)
(8.34515 0.00294877 0)
(8.34702 0.00279113 0)
(8.34893 0.00256159 0)
(8.35087 0.00226307 0)
(8.35281 0.00189844 0)
(8.35477 0.00146973 0)
(8.35672 0.000978867 0)
(8.35867 0.000427741 0)
(8.3606 -0.00018239 0)
(8.36252 -0.00085058 0)
(8.36442 -0.00157625 0)
(8.36631 -0.00235914 0)
(8.36817 -0.00319936 0)
(8.37002 -0.00409735 0)
(8.37185 -0.00505384 0)
(8.37365 -0.00606981 0)
(8.37544 -0.00714649 0)
(8.37721 -0.00828527 0)
(8.37895 -0.00948773 0)
(8.38068 -0.0107555 0)
(8.38239 -0.0120905 0)
(8.38408 -0.0134946 0)
(8.38575 -0.0149676 0)
(8.33302 0.000196238 0)
(8.33328 0.000581896 0)
(8.33381 0.000934585 0)
(8.3346 0.00123805 0)
(8.33559 0.00148327 0)
(8.33678 0.00166446 0)
(8.33813 0.00177823 0)
(8.33962 0.00182456 0)
(8.34122 0.00179787 0)
(8.34291 0.00170232 0)
(8.34467 0.00154056 0)
(8.34648 0.00131415 0)
(8.34833 0.00102472 0)
(8.3502 0.000673742 0)
(8.35209 0.000262466 0)
(8.35398 -0.000207259 0)
(8.35586 -0.000734244 0)
(8.35774 -0.00131752 0)
(8.35961 -0.00195659 0)
(8.36145 -0.00265116 0)
(8.36328 -0.00340115 0)
(8.36509 -0.00420683 0)
(8.36687 -0.00506868 0)
(8.36864 -0.00598746 0)
(8.37037 -0.00696415 0)
(8.37208 -0.0079999 0)
(8.37377 -0.00909605 0)
(8.37543 -0.0102541 0)
(8.37707 -0.0114755 0)
(8.37868 -0.0127621 0)
(8.38027 -0.0141155 0)
(8.38183 -0.0155376 0)
(8.38337 -0.017028 0)
(8.33302 0.000102687 0)
(8.33327 0.00029946 0)
(8.33378 0.000462745 0)
(8.33454 0.000579094 0)
(8.33549 0.000644535 0)
(8.33663 0.000657911 0)
(8.33794 0.000619182 0)
(8.33937 0.000527168 0)
(8.34091 0.000389094 0)
(8.34255 0.000200189 0)
(8.34425 -4.12271e-05 0)
(8.346 -0.000334645 0)
(8.34779 -0.000679754 0)
(8.3496 -0.00107666 0)
(8.35142 -0.00152561 0)
(8.35325 -0.00202612 0)
(8.35507 -0.00257816 0)
(8.35688 -0.00318208 0)
(8.35868 -0.00383813 0)
(8.36045 -0.00454673 0)
(8.3622 -0.00530845 0)
(8.36393 -0.00612407 0)
(8.36564 -0.00699449 0)
(8.36731 -0.00792079 0)
(8.36896 -0.00890416 0)
(8.37057 -0.00994592 0)
(8.37216 -0.0110475 0)
(8.37371 -0.0122104 0)
(8.37524 -0.0134361 0)
(8.37673 -0.0147262 0)
(8.3782 -0.0160823 0)
(8.37962 -0.0175061 0)
(8.38102 -0.018997 0)
(8.33302 1.66275e-05 0)
(8.33324 5.4741e-05 0)
(8.33372 7.60553e-05 0)
(8.33443 6.38046e-05 0)
(8.33534 1.02669e-05 0)
(8.33644 -8.85686e-05 0)
(8.33771 -0.00023409 0)
(8.33911 -0.000427641 0)
(8.34062 -0.000661412 0)
(8.34221 -0.000939483 0)
(8.34387 -0.00126304 0)
(8.34558 -0.00163141 0)
(8.34732 -0.00204437 0)
(8.34908 -0.00250192 0)
(8.35085 -0.00300409 0)
(8.35262 -0.00355159 0)
(8.35438 -0.00414507 0)
(8.35612 -0.00478519 0)
(8.35785 -0.00547274 0)
(8.35955 -0.00620862 0)
(8.36123 -0.00699387 0)
(8.36288 -0.00782965 0)
(8.3645 -0.00871721 0)
(8.36609 -0.0096579 0)
(8.36764 -0.0106531 0)
(8.36916 -0.0117044 0)
(8.37064 -0.0128133 0)
(8.37209 -0.0139812 0)
(8.3735 -0.0152099 0)
(8.37487 -0.0165008 0)
(8.37621 -0.0178555 0)
(8.3775 -0.0192756 0)
(8.37876 -0.0207603 0)
(8.33303 -8.34028e-05 0)
(8.33326 -0.000270731 0)
(8.33374 -0.000500552 0)
(8.33443 -0.000771751 0)
(8.33532 -0.00107058 0)
(8.33638 -0.00138613 0)
(8.33759 -0.00171337 0)
(8.33894 -0.00205034 0)
(8.3404 -0.00240465 0)
(8.34194 -0.00277678 0)
(8.34355 -0.00316955 0)
(8.3452 -0.00358719 0)
(8.34689 -0.00403366 0)
(8.3486 -0.00451238 0)
(8.35031 -0.00502638 0)
(8.35202 -0.00557836 0)
(8.35372 -0.00617054 0)
(8.3554 -0.0068049 0)
(8.35706 -0.00748326 0)
(8.3587 -0.0082073 0)
(8.3603 -0.00897863 0)
(8.36187 -0.00979881 0)
(8.36341 -0.0106694 0)
(8.36491 -0.0115919 0)
(8.36637 -0.0125678 0)
(8.36779 -0.0135987 0)
(8.36918 -0.014686 0)
(8.37052 -0.0158312 0)
(8.37181 -0.0170357 0)
(8.37307 -0.018301 0)
(8.37427 -0.0196282 0)
(8.37544 -0.0210188 0)
(8.37656 -0.0224719 0)
(8.333 -0.000129054 0)
(8.33315 -0.000347156 0)
(8.33355 -0.00056736 0)
(8.33418 -0.00082674 0)
(8.33504 -0.00113754 0)
(8.3361 -0.00149828 0)
(8.33733 -0.00190133 0)
(8.33869 -0.00233825 0)
(8.34016 -0.00280331 0)
(8.3417 -0.00329162 0)
(8.3433 -0.00380148 0)
(8.34494 -0.00433308 0)
(8.3466 -0.00488739 0)
(8.34827 -0.00546597 0)
(8.34994 -0.00607075 0)
(8.3516 -0.00670393 0)
(8.35325 -0.00736779 0)
(8.35487 -0.00806463 0)
(8.35647 -0.00879671 0)
(8.35803 -0.00956625 0)
(8.35956 -0.0103754 0)
(8.36106 -0.0112263 0)
(8.36251 -0.0121209 0)
(8.36392 -0.0130613 0)
(8.36529 -0.0140493 0)
(8.36661 -0.0150868 0)
(8.36788 -0.0161755 0)
(8.36911 -0.0173172 0)
(8.37029 -0.0185134 0)
(8.37142 -0.0197656 0)
(8.3725 -0.0210751 0)
(8.37353 -0.0224434 0)
(8.37451 -0.0238696 0)
(8.33306 -0.000323895 0)
(8.33334 -0.00104266 0)
(8.3338 -0.00183699 0)
(8.33442 -0.00263919 0)
(8.33522 -0.00339344 0)
(8.33619 -0.0040798 0)
(8.33732 -0.0047003 0)
(8.3386 -0.00526603 0)
(8.33998 -0.00579156 0)
(8.34146 -0.00629097 0)
(8.343 -0.00677704 0)
(8.34458 -0.00726103 0)
(8.34619 -0.00775234 0)
(8.34781 -0.00825871 0)
(8.34944 -0.00878644 0)
(8.35105 -0.00934069 0)
(8.35265 -0.00992566 0)
(8.35422 -0.0105448 0)
(8.35576 -0.011201 0)
(8.35727 -0.0118968 0)
(8.35873 -0.0126343 0)
(8.36016 -0.0134156 0)
(8.36154 -0.0142423 0)
(8.36287 -0.0151162 0)
(8.36416 -0.0160388 0)
(8.36539 -0.0170115 0)
(8.36657 -0.0180357 0)
(8.3677 -0.0191126 0)
(8.36877 -0.0202435 0)
(8.36979 -0.0214294 0)
(8.37075 -0.0226713 0)
(8.37165 -0.0239702 0)
(8.3725 -0.025325 0)
(8.33294 -8.4242e-05 0)
(8.33285 -0.000161523 0)
(8.33308 -0.000302049 0)
(8.33366 -0.000632365 0)
(8.33456 -0.00115692 0)
(8.33568 -0.00181955 0)
(8.33697 -0.00256183 0)
(8.33839 -0.00334229 0)
(8.33988 -0.00413538 0)
(8.34143 -0.00492623 0)
(8.34302 -0.0057076 0)
(8.34463 -0.00647753 0)
(8.34624 -0.00723741 0)
(8.34785 -0.00799051 0)
(8.34944 -0.00874112 0)
(8.35101 -0.00949391 0)
(8.35255 -0.0102537 0)
(8.35406 -0.011025 0)
(8.35554 -0.0118124 0)
(8.35697 -0.0126197 0)
(8.35835 -0.013451 0)
(8.35969 -0.0143095 0)
(8.36098 -0.0151985 0)
(8.36222 -0.0161209 0)
(8.3634 -0.0170795 0)
(8.36453 -0.0180765 0)
(8.3656 -0.0191143 0)
(8.36661 -0.0201948 0)
(8.36757 -0.0213198 0)
(8.36846 -0.0224909 0)
(8.3693 -0.0237095 0)
(8.37007 -0.0249769 0)
(8.37078 -0.0262924 0)
(8.33317 -0.000783731 0)
(8.33367 -0.002692 0)
(8.33406 -0.00466007 0)
(8.33446 -0.00634407 0)
(8.33501 -0.00767063 0)
(8.3358 -0.00869498 0)
(8.33681 -0.00949178 0)
(8.33801 -0.0101254 0)
(8.33935 -0.0106477 0)
(8.34079 -0.0110992 0)
(8.3423 -0.0115107 0)
(8.34386 -0.011905 0)
(8.34544 -0.0122988 0)
(8.34703 -0.0127042 0)
(8.34861 -0.0131298 0)
(8.35017 -0.0135819 0)
(8.3517 -0.0140651 0)
(8.35319 -0.0145828 0)
(8.35464 -0.0151375 0)
(8.35605 -0.0157312 0)
(8.3574 -0.0163654 0)
(8.3587 -0.0170416 0)
(8.35994 -0.0177607 0)
(8.36113 -0.0185239 0)
(8.36226 -0.0193322 0)
(8.36332 -0.0201862 0)
(8.36432 -0.021087 0)
(8.36525 -0.0220351 0)
(8.36612 -0.0230313 0)
(8.36693 -0.0240762 0)
(8.36766 -0.0251702 0)
(8.36833 -0.0263139 0)
(8.36893 -0.0275062 0)
(8.33263 0.000566632 0)
(8.33174 0.00196649 0)
(8.33174 0.00282338 0)
(8.33257 0.00271664 0)
(8.33383 0.00185695 0)
(8.33528 0.000602668 0)
(8.33683 -0.000812503 0)
(8.33842 -0.00226512 0)
(8.34003 -0.00368899 0)
(8.34165 -0.00504886 0)
(8.34325 -0.00633003 0)
(8.34484 -0.00753085 0)
(8.3464 -0.00865673 0)
(8.34794 -0.00971657 0)
(8.34944 -0.0107208 0)
(8.35091 -0.0116799 0)
(8.35234 -0.0126043 0)
(8.35372 -0.0135034 0)
(8.35506 -0.0143858 0)
(8.35635 -0.0152592 0)
(8.35758 -0.0161305 0)
(8.35876 -0.0170056 0)
(8.35989 -0.01789 0)
(8.36096 -0.0187883 0)
(8.36196 -0.0197046 0)
(8.3629 -0.0206425 0)
(8.36378 -0.0216053 0)
(8.3646 -0.0225956 0)
(8.36534 -0.0236159 0)
(8.36602 -0.0246682 0)
(8.36663 -0.0257542 0)
(8.36717 -0.0268754 0)
(8.36764 -0.0280315 0)
(8.33358 -0.00196664 0)
(8.33466 -0.00692061 0)
(8.3344 -0.0117207 0)
(8.3337 -0.0149067 0)
(8.33346 -0.0166921 0)
(8.33386 -0.0176658 0)
(8.33472 -0.0181528 0)
(8.3359 -0.0183472 0)
(8.33729 -0.018384 0)
(8.33882 -0.0183509 0)
(8.34044 -0.0183026 0)
(8.3421 -0.0182724 0)
(8.34377 -0.0182797 0)
(8.34542 -0.0183353 0)
(8.34706 -0.0184445 0)
(8.34865 -0.0186094 0)
(8.3502 -0.01883 0)
(8.3517 -0.0191055 0)
(8.35313 -0.0194344 0)
(8.35451 -0.0198152 0)
(8.35582 -0.0202463 0)
(8.35707 -0.0207263 0)
(8.35825 -0.0212539 0)
(8.35936 -0.0218281 0)
(8.36039 -0.022448 0)
(8.36136 -0.0231129 0)
(8.36225 -0.0238223 0)
(8.36307 -0.0245756 0)
(8.36381 -0.0253725 0)
(8.36448 -0.0262127 0)
(8.36507 -0.0270959 0)
(8.36558 -0.0280223 0)
(8.36602 -0.0289902 0)
(8.33162 0.00368826 0)
(8.32827 0.0102293 0)
(8.32843 0.0133833 0)
(8.33098 0.0133232 0)
(8.33357 0.0112557 0)
(8.33575 0.00840352 0)
(8.33769 0.00539498 0)
(8.33948 0.00247209 0)
(8.34115 -0.000253518 0)
(8.34272 -0.00273424 0)
(8.34422 -0.00496513 0)
(8.34568 -0.00696263 0)
(8.3471 -0.00875158 0)
(8.3485 -0.0103593 0)
(8.34986 -0.0118129 0)
(8.3512 -0.0131371 0)
(8.35251 -0.0143545 0)
(8.35378 -0.0154845 0)
(8.35502 -0.0165442 0)
(8.35623 -0.0175481 0)
(8.35739 -0.0185089 0)
(8.3585 -0.0194371 0)
(8.35956 -0.020342 0)
(8.36057 -0.0212314 0)
(8.36152 -0.0221121 0)
(8.36242 -0.0229897 0)
(8.36324 -0.0238693 0)
(8.36401 -0.024755 0)
(8.3647 -0.0256504 0)
(8.36532 -0.0265586 0)
(8.36588 -0.027482 0)
(8.36635 -0.0284227 0)
(8.36676 -0.0293814 0)
(8.3343 -0.00643514 0)
(8.33462 -0.0206894 0)
(8.33072 -0.0299236 0)
(8.3267 -0.033924 0)
(8.32477 -0.0348187 0)
(8.32485 -0.034272 0)
(8.32602 -0.0330969 0)
(8.32774 -0.0316895 0)
(8.32979 -0.0302727 0)
(8.33204 -0.0289635 0)
(8.33438 -0.0278139 0)
(8.33676 -0.0268406 0)
(8.33913 -0.0260425 0)
(8.34146 -0.0254097 0)
(8.34375 -0.024928 0)
(8.34599 -0.0245821 0)
(8.34815 -0.0243575 0)
(8.35024 -0.0242404 0)
(8.35225 -0.0242188 0)
(8.35418 -0.0242823 0)
(8.35602 -0.0244217 0)
(8.35778 -0.0246295 0)
(8.35945 -0.0248992 0)
(8.36103 -0.0252254 0)
(8.36252 -0.0256037 0)
(8.36391 -0.0260304 0)
(8.36522 -0.0265023 0)
(8.36643 -0.027017 0)
(8.36754 -0.0275724 0)
(8.36856 -0.0281666 0)
(8.36949 -0.0287983 0)
(8.37032 -0.0294666 0)
(8.37107 -0.0301692 0)
(8.32884 0.022595 0)
(8.32235 0.0427709 0)
(8.32668 0.0440029 0)
(8.3333 0.0380485 0)
(8.3378 0.0307059 0)
(8.34063 0.0235581 0)
(8.34292 0.0169206 0)
(8.34509 0.0109711 0)
(8.34727 0.0057654 0)
(8.34952 0.00125555 0)
(8.35186 -0.00263871 0)
(8.3543 -0.00599948 0)
(8.35681 -0.00890471 0)
(8.35938 -0.0114252 0)
(8.36197 -0.0136227 0)
(8.36457 -0.01555 0)
(8.36715 -0.0172518 0)
(8.36971 -0.0187656 0)
(8.37221 -0.0201231 0)
(8.37466 -0.0213507 0)
(8.37704 -0.0224708 0)
(8.37934 -0.0235019 0)
(8.38155 -0.0244599 0)
(8.38366 -0.0253581 0)
(8.38568 -0.0262077 0)
(8.3876 -0.0270184 0)
(8.38941 -0.0277983 0)
(8.39111 -0.0285543 0)
(8.39271 -0.0292925 0)
(8.39419 -0.030018 0)
(8.39556 -0.0307354 0)
(8.39681 -0.0314482 0)
(8.39796 -0.0321601 0)
(8.32436 -0.0380293 0)
(8.29386 -0.0683187 0)
(8.27215 -0.0716935 0)
(8.26667 -0.0685961 0)
(8.27355 -0.0642502 0)
(8.28616 -0.0594241 0)
(8.30089 -0.0547434 0)
(8.31617 -0.0505701 0)
(8.33117 -0.0469652 0)
(8.34541 -0.0439038 0)
(8.35871 -0.0413412 0)
(8.37099 -0.0392184 0)
(8.38227 -0.0374738 0)
(8.3926 -0.0360506 0)
(8.40202 -0.0348991 0)
(8.4106 -0.0339765 0)
(8.41841 -0.0332466 0)
(8.42552 -0.0326793 0)
(8.43197 -0.0322496 0)
(8.43782 -0.0319368 0)
(8.44313 -0.031724 0)
(8.44792 -0.0315971 0)
(8.45225 -0.0315447 0)
(8.45615 -0.0315575 0)
(8.45965 -0.0316275 0)
(8.46278 -0.0317485 0)
(8.46557 -0.0319151 0)
(8.46803 -0.032123 0)
(8.4702 -0.0323685 0)
(8.47209 -0.0326485 0)
(8.47372 -0.0329603 0)
(8.4751 -0.0333017 0)
(8.47628 -0.0336693 0)
(8.34002 0.156989 0)
(8.38199 0.148998 0)
(8.40249 0.103379 0)
(8.3994 0.0645027 0)