/*--------------------------------*- C++ -*----------------------------------*\
| =========                 |                                                 |
| \\      /  F ield         | OpenFOAM: The Open Source CFD Toolbox           |
|  \\    /   O peration     | Version:  2.1.1                                 |
|   \\  /    A nd           | Web:      www.OpenFOAM.org                      |
|    \\/     M anipulation  |                                                 |
\*---------------------------------------------------------------------------*/
FoamFile
{
    version     2.0;
    format      ascii;
    class       volScalarField;
    location    "0.035";
    object      epsilon;
}
// * * * * * * * * * * * * * * * * * * * * * * * * * * * * * * * * * * * * * //

dimensions      [0 2 -3 0 0 0 0];

internalField   nonuniform List<scalar> 
6820
(
151.447
203.15
260.734
321.762
383.636
443.749
499.823
550.154
593.694
630.01
659.173
681.627
698.052
709.243
716.027
719.198
719.484
717.523
713.86
708.95
703.163
696.797
690.085
683.205
676.289
669.435
662.7
656.135
649.672
643.671
636.289
636.08
601.645
11.7448
21.4156
29.9378
38.6105
47.5532
56.5108
65.2454
73.5551
81.2777
88.3046
94.5812
100.101
104.893
109.016
112.54
115.545
118.106
120.299
122.19
123.839
125.297
126.61
127.817
128.953
130.053
131.149
132.279
133.49
134.835
136.426
138.343
141.041
144.598
5.83779
7.51704
9.20727
10.8104
12.3214
13.7494
15.0907
16.3416
17.5002
18.5662
19.5412
20.4287
21.2337
21.9625
22.6222
23.2201
23.7638
24.2604
24.7167
25.1388
25.5325
25.9027
26.2539
26.5901
26.9149
27.2317
27.5437
27.8547
28.1684
28.4906
28.8314
29.1862
29.6609
5.24228
5.56003
6.0045
6.49368
6.98619
7.4628
7.91445
8.33684
8.72831
9.08868
9.41871
9.7197
9.99331
10.2414
10.4659
10.6689
10.8521
11.0176
11.1671
11.3021
11.4243
11.535
11.6354
11.7267
11.8098
11.8853
11.9539
12.0158
12.071
12.1193
12.1592
12.1906
12.2052
5.17349
5.18678
5.26823
5.3978
5.55646
5.72983
5.90802
6.08461
6.25558
6.4185
6.57197
6.7153
6.84824
6.97085
7.08339
7.18626
7.27996
7.36502
7.44201
7.51152
7.5741
7.63033
7.68075
7.72586
7.76617
7.80211
7.83412
7.86258
7.88783
7.9102
7.92985
7.94715
7.9615
5.16877
5.1213
5.096
5.0948
5.11535
5.15307
5.20298
5.26073
5.32288
5.38685
5.45077
5.51331
5.57355
5.63087
5.68489
5.73538
5.78225
5.82548
5.86514
5.90133
5.9342
5.96392
5.99068
6.01468
6.03614
6.05528
6.07232
6.08753
6.10116
6.11351
6.12493
6.13579
6.14656
5.16887
5.11168
5.06116
5.01963
4.98842
4.96756
4.95617
4.9528
4.95586
4.96381
4.97532
4.98927
5.00475
5.02103
5.03756
5.0539
5.06972
5.0848
5.09897
5.11211
5.12417
5.13511
5.14494
5.15368
5.16138
5.1681
5.17394
5.17899
5.18341
5.18736
5.19105
5.19475
5.19879
5.16901
5.11062
5.05514
5.00339
4.9562
4.91416
4.8775
4.84616
4.81978
4.79787
4.77984
4.76512
4.75315
4.74341
4.73546
4.72891
4.72343
4.71876
4.71467
4.71098
4.70754
4.70424
4.701
4.69774
4.69444
4.69108
4.68765
4.68417
4.68071
4.67733
4.67416
4.67135
4.66911
5.16904
5.11054
5.05431
5.00049
4.94928
4.90093
4.85564
4.81353
4.77466
4.73895
4.70626
4.67641
4.64916
4.62426
4.60146
4.58053
4.56124
4.54339
4.52678
4.51127
4.4967
4.48296
4.46992
4.45752
4.44568
4.43433
4.42346
4.41302
4.40304
4.39354
4.38457
4.37624
4.36866
5.16904
5.11053
5.0542
5.00002
4.94796
4.89806
4.85032
4.80479
4.76149
4.72044
4.68159
4.64491
4.61032
4.57772
4.54701
4.51806
4.49077
4.465
4.44063
4.41757
4.39569
4.37491
4.35514
4.33629
4.31831
4.30113
4.28471
4.26902
4.25403
4.23977
4.22626
4.21355
4.20174
5.16904
5.11053
5.05418
4.99994
4.94773
4.8975
4.84917
4.80272
4.75811
4.7153
4.67427
4.63498
4.59739
4.56145
4.52711
4.49431
4.46298
4.43306
4.40447
4.37715
4.35104
4.32605
4.30214
4.27924
4.25731
4.23629
4.21615
4.19687
4.17842
4.16081
4.14406
4.12821
4.1133
5.16904
5.11052
5.05416
4.99991
4.94768
4.89737
4.84892
4.80225
4.7573
4.714
4.6723
4.63216
4.59353
4.55635
4.52059
4.48619
4.45311
4.42131
4.39073
4.36134
4.33307
4.30589
4.27975
4.25462
4.23045
4.20721
4.18487
4.16342
4.14284
4.12313
4.10432
4.08643
4.06951
5.16903
5.11052
5.05415
4.99989
4.94765
4.89733
4.84885
4.80212
4.75709
4.71366
4.67178
4.6314
4.59244
4.55486
4.51861
4.48364
4.44991
4.41737
4.38598
4.3557
4.32649
4.29831
4.27113
4.24492
4.21964
4.19528
4.1718
4.14921
4.12748
4.10662
4.08665
4.0676
4.04949
5.16903
5.11051
5.05414
4.99988
4.94762
4.89729
4.8488
4.80206
4.757
4.71354
4.67161
4.63115
4.5921
4.55441
4.51801
4.48285
4.4489
4.41611
4.38442
4.35381
4.32424
4.29566
4.26806
4.24139
4.21564
4.19078
4.16679
4.14366
4.12139
4.09998
4.07943
4.05978
4.04105
5.16903
5.11051
5.05414
4.99986
4.9476
4.89727
4.84876
4.80201
4.75694
4.71346
4.67151
4.63103
4.59195
4.55422
4.51777
4.48256
4.44853
4.41565
4.38387
4.35315
4.32345
4.29473
4.26697
4.24014
4.21421
4.18915
4.16496
4.14162
4.11912
4.09746
4.07666
4.05673
4.03768
5.16903
5.1105
5.05413
4.99985
4.94759
4.89724
4.84873
4.80197
4.75688
4.71339
4.67144
4.63094
4.59184
4.55409
4.51762
4.48238
4.44833
4.41542
4.38361
4.35284
4.3231
4.29433
4.26652
4.23963
4.21363
4.18851
4.16424
4.14082
4.11823
4.09647
4.07556
4.05549
4.03629
5.16903
5.1105
5.05412
4.99984
4.94757
4.89722
4.8487
4.80193
4.75683
4.71334
4.67136
4.63086
4.59175
4.55398
4.51749
4.48224
4.44818
4.41525
4.38341
4.35263
4.32287
4.29408
4.26625
4.23933
4.21331
4.18816
4.16386
4.1404
4.11777
4.09597
4.075
4.05485
4.03555
5.16903
5.1105
5.05412
4.99984
4.94756
4.8972
4.84868
4.8019
4.75679
4.71328
4.6713
4.63078
4.59166
4.55388
4.51738
4.48212
4.44803
4.41509
4.38324
4.35244
4.32266
4.29386
4.26601
4.23908
4.21304
4.18787
4.16356
4.14008
4.11742
4.09558
4.07456
4.05435
4.03496
5.16903
5.1105
5.05412
4.99983
4.94755
4.89719
4.84865
4.80187
4.75675
4.71323
4.67124
4.63071
4.59158
4.55378
4.51727
4.48199
4.4479
4.41494
4.38307
4.35226
4.32247
4.29365
4.26578
4.23884
4.21278
4.18759
4.16326
4.13975
4.11706
4.09519
4.07412
4.05385
4.03438
5.16903
5.11049
5.05411
4.99982
4.94754
4.89717
4.84863
4.80184
4.75672
4.71319
4.67119
4.63064
4.5915
4.55369
4.51717
4.48188
4.44777
4.41479
4.38291
4.35208
4.32227
4.29344
4.26555
4.23859
4.21251
4.1873
4.16294
4.1394
4.11668
4.09477
4.07364
4.05331
4.03375
5.16903
5.11049
5.05411
4.99982
4.94753
4.89716
4.84861
4.80182
4.75669
4.71315
4.67114
4.63058
4.59143
4.55361
4.51707
4.48176
4.44764
4.41465
4.38275
4.35191
4.32208
4.29322
4.26532
4.23833
4.21223
4.18699
4.1626
4.13903
4.11627
4.09431
4.07313
4.05272
4.03308
5.16903
5.11049
5.05411
4.99981
4.94752
4.89715
4.8486
4.8018
4.75666
4.71311
4.67109
4.63053
4.59136
4.55353
4.51698
4.48166
4.44752
4.41451
4.3826
4.35173
4.32188
4.29301
4.26508
4.23807
4.21194
4.18668
4.16225
4.13864
4.11584
4.09382
4.07258
4.0521
4.03237
5.16903
5.11049
5.05411
4.99981
4.94752
4.89714
4.84859
4.80178
4.75663
4.71308
4.67105
4.63048
4.5913
4.55345
4.51689
4.48155
4.4474
4.41437
4.38244
4.35156
4.32169
4.29279
4.26484
4.2378
4.21164
4.18635
4.16188
4.13823
4.11538
4.09331
4.072
4.05145
4.03163
5.16903
5.11049
5.0541
4.99981
4.94751
4.89713
4.84857
4.80176
4.75661
4.71305
4.67101
4.63043
4.59124
4.55338
4.5168
4.48145
4.44728
4.41424
4.38229
4.35139
4.3215
4.29258
4.2646
4.23753
4.21134
4.18601
4.16151
4.13781
4.11491
4.09278
4.07141
4.05078
4.03087
5.16903
5.11049
5.0541
4.9998
4.94751
4.89712
4.84856
4.80174
4.75659
4.71302
4.67097
4.63038
4.59118
4.55331
4.51672
4.48136
4.44717
4.41411
4.38214
4.35122
4.3213
4.29236
4.26435
4.23725
4.21103
4.18566
4.16112
4.13738
4.11443
4.09224
4.0708
4.05009
4.0301
5.16903
5.11049
5.0541
4.9998
4.94751
4.89712
4.84855
4.80173
4.75657
4.713
4.67094
4.63034
4.59113
4.55325
4.51665
4.48127
4.44707
4.41399
4.382
4.35106
4.32112
4.29215
4.26411
4.23698
4.21073
4.18532
4.16074
4.13695
4.11395
4.0917
4.07019
4.04941
4.02934
5.16903
5.11049
5.0541
4.9998
4.9475
4.89711
4.84855
4.80172
4.75655
4.71297
4.67091
4.6303
4.59108
4.55319
4.51657
4.48118
4.44696
4.41387
4.38186
4.35089
4.32093
4.29193
4.26387
4.23671
4.21042
4.18497
4.16035
4.13652
4.11346
4.09115
4.06958
4.04873
4.02858
5.16903
5.11049
5.0541
4.9998
4.9475
4.89711
4.84854
4.80171
4.75654
4.71295
4.67089
4.63027
4.59104
4.55314
4.51651
4.4811
4.44687
4.41376
4.38173
4.35074
4.32075
4.29173
4.26364
4.23645
4.21012
4.18464
4.15997
4.1361
4.11299
4.09063
4.069
4.04807
4.02784
5.16903
5.11049
5.0541
4.9998
4.9475
4.89711
4.84853
4.8017
4.75652
4.71293
4.67085
4.63023
4.59099
4.55308
4.51644
4.48102
4.44677
4.41364
4.38159
4.35058
4.32057
4.29153
4.26341
4.23618
4.20983
4.18431
4.1596
4.13568
4.11252
4.09011
4.06842
4.04743
4.02713
5.16903
5.11049
5.0541
4.9998
4.9475
4.89711
4.84854
4.8017
4.75652
4.71293
4.67085
4.63022
4.59097
4.55305
4.5164
4.48097
4.4467
4.41356
4.38149
4.35047
4.32043
4.29136
4.26322
4.23596
4.20957
4.18402
4.15927
4.13531
4.11211
4.08964
4.0679
4.04685
4.02648
5.16903
5.11049
5.05411
4.99981
4.9475
4.89711
4.84853
4.80169
4.75651
4.71291
4.67082
4.63018
4.59093
4.553
4.51634
4.48089
4.44662
4.41346
4.38138
4.35033
4.32028
4.29119
4.26302
4.23575
4.20933
4.18375
4.15897
4.13497
4.11173
4.08922
4.06743
4.04633
4.02591
5.16903
5.11049
5.0541
4.99981
4.94752
4.89714
4.84857
4.80175
4.75657
4.71298
4.6709
4.63026
4.591
4.55307
4.5164
4.48095
4.44666
4.41349
4.3814
4.35034
4.32027
4.29117
4.26298
4.23569
4.20925
4.18365
4.15885
4.13483
4.11157
4.08904
4.06722
4.04609
4.02563
5.16903
5.11051
5.05414
4.99986
4.94758
4.89719
4.84863
4.80179
4.75661
4.71302
4.67093
4.6303
4.59105
4.55312
4.51646
4.48102
4.44675
4.4136
4.38153
4.3505
4.32046
4.29138
4.26323
4.23597
4.20958
4.18402
4.15926
4.13529
4.11207
4.08959
4.06782
4.04675
4.02634
5.16903
5.1105
5.05415
4.99992
4.94769
4.89738
4.84889
4.80212
4.75701
4.71347
4.67145
4.63089
4.59171
4.55387
4.51732
4.482
4.44786
4.41487
4.38297
4.35212
4.32229
4.29344
4.26553
4.23853
4.21241
4.18713
4.16268
4.13902
4.11612
4.09397
4.07254
4.05182
4.03176
5.16905
5.11064
5.05443
5.00029
4.94814
4.8979
4.84952
4.80292
4.75804
4.71482
4.67319
4.6331
4.59448
4.55729
4.52146
4.48694
4.45368
4.42163
4.39074
4.36096
4.33225
4.30457
4.27786
4.25211
4.22725
4.20327
4.18013
4.1578
4.13624
4.11543
4.09534
4.07594
4.05721
5.16908
5.11078
5.05486
5.00135
4.95015
4.90116
4.85434
4.80961
4.76693
4.72623
4.68745
4.65051
4.61532
4.5818
4.54986
4.51943
4.4904
4.46271
4.43626
4.41099
4.38683
4.3637
4.34155
4.3203
4.29992
4.28034
4.26151
4.2434
4.22596
4.20915
4.19293
4.17728
4.16214
5.1694
5.11362
5.06205
5.01465
4.97141
4.93228
4.89708
4.86552
4.8373
4.81208
4.78954
4.76937
4.75129
4.73503
4.72035
4.70705
4.69493
4.68383
4.67358
4.66407
4.65516
4.64676
4.63877
4.63112
4.62373
4.61654
4.60948
4.60253
4.59562
4.58873
4.58181
4.57486
4.56783
5.17807
5.16333
5.16922
5.1905
5.22319
5.26429
5.31138
5.3626
5.41651
5.47206
5.5284
5.5849
5.64105
5.69647
5.75088
5.80406
5.85586
5.90618
5.95495
6.00215
6.04775
6.09179
6.13428
6.17528
6.21486
6.25307
6.29
6.32575
6.36041
6.39409
6.42689
6.45893
6.49032
5.63865
6.43065
7.14651
7.82867
8.50122
9.15824
9.79394
10.4062
10.995
11.5615
12.1074
12.6346
13.1447
13.6396
14.1209
14.5899
15.048
15.4965
15.9364
16.3687
16.7944
17.2143
17.6294
18.0403
18.4478
18.8526
19.2553
19.6564
20.0566
20.4562
20.8558
21.2559
21.6564
44.7794
48.3125
51.8866
55.4659
59.0313
62.5709
66.0739
69.5306
72.9319
76.2701
79.5379
82.7295
85.8395
88.8639
91.799
94.6423
97.3917
100.046
102.604
105.065
107.43
109.699
111.872
113.951
115.938
117.833
119.638
121.354
122.985
124.532
125.996
127.38
128.687
709.823
865.872
1036.34
1192.05
1277.32
1259.41
1159.17
1024.82
895.996
791.131
712.634
655.727
614.773
584.949
560.565
537.142
510.597
476.744
431.473
371.806
297.864
215.115
134.998
71.1561
31.812
14.7062
10.1149
9.88936
10.6518
11.4979
12.2358
12.8229
13.2414
13.4874
13.5733
13.5235
13.3682
13.1384
12.8627
12.5664
12.2707
11.9927
11.7438
11.5295
11.3493
11.1984
11.0704
10.9596
10.861
10.7681
10.6709
10.5533
10.3938
10.1689
9.85734
9.44585
8.93243
8.32823
7.65675
6.95071
6.24705
5.58108
4.98105
4.46445
4.03704
3.69453
3.42604
3.21794
3.05688
2.93163
2.83351
2.75622
2.6952
2.64709
2.60935
2.57993
2.55718
2.53972
2.52646
2.51649
2.50907
2.50363
2.49968
2.49688
2.49492
2.49359
2.49271
2.49214
2.4918
2.49159
2.49148
2.49141
2.49137
2.49132
2.49127
2.49119
2.4911
2.49093
2.49103
2.48956
150.38
165.513
199.937
263.734
360.434
478.956
596.671
689.832
743.976
758.263
741.801
707.575
662.297
610.833
556.915
500.949
441.253
375.922
304.524
229.465
156.571
93.9544
48.7228
22.9973
12.3681
9.47453
9.25232
9.72364
10.3345
10.9426
11.4944
11.9505
12.2828
12.4801
12.5475
12.5026
12.3684
12.1695
11.9293
11.6689
11.4066
11.1577
10.9331
10.7385
10.574
10.4359
10.3186
10.2175
10.1288
10.0487
9.96959
9.87826
9.75535
9.57809
9.32488
8.98035
8.53942
8.00939
7.40961
6.76891
6.12116
5.49989
4.93307
4.43929
4.02636
3.69237
3.4286
3.22307
3.06347
2.93908
2.84147
2.76439
2.70334
2.65498
2.61681
2.58684
2.56346
2.54535
2.53143
2.52083
2.51281
2.50682
2.50238
2.49912
2.49676
2.49507
2.49387
2.49303
2.49244
2.49203
2.49173
2.4915
2.49132
2.49115
2.49099
2.49082
2.49066
2.49041
2.49046
2.48892
30.1484
30.521
30.8549
32.992
41.5701
62.0119
96.5902
142.833
194.115
242.255
280.393
303.892
312.52
305.921
284.851
251.701
209.953
163.76
117.762
76.7851
44.9566
24.3159
13.7877
9.78644
8.7292
8.66959
8.93972
9.3472
9.81687
10.2971
10.7423
11.1141
11.3868
11.5496
11.6056
11.5678
11.4542
11.2844
11.0772
10.8503
10.6194
10.398
10.1965
10.0207
9.87158
9.74581
9.63849
9.54541
9.46414
9.39264
9.32625
9.25472
9.16131
9.02468
8.82312
8.53961
8.16611
7.70606
7.17461
6.59659
6.00269
5.42452
4.88965
4.41765
4.0183
3.69204
3.43234
3.22884
3.07028
2.94648
2.84921
2.77227
2.71115
2.66254
2.62396
2.59346
2.56947
2.55071
2.53614
2.52488
2.51625
2.50968
2.50471
2.50097
2.49817
2.49609
2.49455
2.4934
2.49254
2.49189
2.49138
2.49097
2.49063
2.49032
2.49004
2.48977
2.48951
2.48919
2.48918
2.48756
12.2151
12.1624
11.8294
10.8724
9.18766
7.68227
7.99955
11.141
17.3346
25.9209
35.2481
42.9309
48.3645
50.7348
49.4783
44.6931
37.2685
28.7204
20.7631
14.7152
10.992
9.1308
8.34838
8.06853
8.04873
8.20431
8.48385
8.84391
9.24497
9.64913
10.021
10.3309
10.5588
10.6961
10.7449
10.7152
10.621
10.4779
10.301
10.105
9.90314
9.70762
9.52811
9.37055
9.23631
9.12269
9.02503
8.93938
8.86395
8.79827
8.74025
8.6828
8.61211
8.50881
8.3516
8.12224
7.81005
7.41482
6.9476
6.42923
5.88712
5.35078
4.84714
4.39655
4.01056
3.69184
3.43598
3.2343
3.07661
2.95327
2.85627
2.77946
2.71833
2.66954
2.63063
2.59968
2.57514
2.55579
2.54059
2.52872
2.51948
2.51234
2.50683
2.50259
2.49935
2.49686
2.49495
2.49348
2.49233
2.49142
2.49069
2.49009
2.48957
2.48912
2.48871
2.48832
2.48797
2.48756
2.48747
2.48576
7.975
7.98779
7.9874
7.91849
7.63669
6.97773
5.98898
4.99319
4.48508
4.80598
5.96815
7.80368
9.36113
10.3755
10.7858
10.6514
10.1288
9.4252
8.72794
8.14977
7.72767
7.46307
7.34839
7.36757
7.49764
7.71548
8.00034
8.33078
8.68253
9.0291
9.34439
9.60612
9.79917
9.91711
9.96161
9.94028
9.86404
9.7451
9.59572
9.42779
9.25272
9.08121
8.92233
8.78207
8.66224
8.56056
8.47255
8.39419
8.3239
8.26229
8.20947
8.1614
8.10742
8.03051
7.91035
7.72798
7.47052
7.13446
6.72692
6.26483
5.77228
5.27653
4.80361
4.37435
4.00183
3.69076
3.4388
3.23892
3.08202
2.95908
2.86233
2.78569
2.7246
2.67573
2.63659
2.60529
2.58032
2.56046
2.54471
2.53228
2.52249
2.5148
2.50878
2.50406
2.50038
2.49749
2.49521
2.49341
2.49197
2.4908
2.48984
2.48903
2.48833
2.48772
2.48717
2.48667
2.48621
2.48571
2.48555
2.48374
6.15953
6.17758
6.20339
6.23885
6.27442
6.27268
6.17567
5.95059
5.65314
5.42684
5.42471
5.65349
5.964
6.26158
6.49128
6.63191
6.68917
6.68623
6.65349
6.62027
6.6101
6.6394
6.7179
6.8495
7.03379
7.26661
7.53943
7.83905
8.14824
8.44739
8.71691
8.94014
9.10582
9.20915
9.25141
9.23838
9.17848
9.08125
8.95649
8.81389
8.66312
8.51364
8.37389
8.24986
8.14377
8.05375
7.9754
7.90447
7.83921
7.78081
7.73107
7.68874
7.64632
7.58948
7.49933
7.3568
7.14729
6.86438
6.5116
6.10214
5.65674
5.20028
4.75764
4.34982
3.9911
3.68804
3.44023
3.24226
3.08619
2.96365
2.86716
2.79071
2.72973
2.68088
2.64164
2.61012
2.58482
2.56457
2.54838
2.53547
2.52519
2.51703
2.51054
2.50538
2.50128
2.49801
2.49538
2.49327
2.49154
2.49011
2.48892
2.48791
2.48704
2.48627
2.48559
2.48496
2.4844
2.48381
2.48358
2.48167
5.20451
5.21399
5.22975
5.25488
5.29139
5.33787
5.38557
5.41876
5.42517
5.40996
5.40135
5.42231
5.47484
5.54832
5.62899
5.70609
5.77464
5.83546
5.89398
5.95826
6.03705
6.13822
6.26803
6.43053
6.62688
6.8548
7.10822
7.37725
7.64876
7.90781
8.13962
8.33175
8.47576
8.56805
8.60951
8.60442
8.5592
8.48126
8.37834
8.25836
8.12947
7.99999
7.87778
7.7688
7.67563
7.59683
7.52809
7.46482
7.40484
7.34943
7.30158
7.26236
7.22734
7.18501
7.11838
7.00875
6.84041
6.60451
6.30135
5.94059
5.53973
5.12115
4.70833
4.32211
3.97765
3.68311
3.43984
3.24403
3.08891
2.96681
2.87059
2.79437
2.73357
2.68482
2.64558
2.61397
2.58849
2.56796
2.55145
2.53817
2.5275
2.51894
2.51205
2.50651
2.50205
2.49843
2.49549
2.49308
2.49109
2.48943
2.48802
2.48682
2.48578
2.48486
2.48405
2.48331
2.48264
2.48196
2.48166
2.47966
4.66765
4.66838
4.67354
4.68523
4.7051
4.73414
4.77212
4.81659
4.86318
4.90768
4.95062
4.99555
5.04492
5.09955
5.15898
5.22238
5.28949
5.3613
5.44012
5.52944
5.63338
5.75602
5.90078
6.06967
6.2627
6.47746
6.70877
6.9486
7.18667
7.41153
7.61204
7.77886
7.90563
7.98952
8.03104
8.03328
8.00105
7.94003
7.85633
7.75636
7.64697
7.5355
7.42922
7.33404
7.25286
7.18471
7.12539
7.06998
7.01568
6.96348
6.91701
6.87922
6.8484
6.81595
6.76705
6.68388
6.55016
6.35516
6.09636
5.78021
5.42107
5.03878
4.65522
4.29072
3.96105
3.67561
3.43738
3.24406
3.09006
2.96847
2.87256
2.79658
2.73601
2.68743
2.64831
2.61671
2.59117
2.5705
2.55378
2.54025
2.52929
2.52042
2.51322
2.50737
2.5026
2.4987
2.49549
2.49282
2.4906
2.48873
2.48714
2.48577
2.48457
2.48352
2.48259
2.48174
2.48099
2.48022
2.47986
2.47777
4.36109
4.3545
4.35127
4.35296
4.36091
4.3761
4.39906
4.42969
4.46717
4.51019
4.55761
4.60892
4.664
4.72298
4.78616
4.85404
4.92746
5.00776
5.09681
5.19689
5.3105
5.43995
5.58698
5.75233
5.9353
6.13332
6.34184
6.55435
6.7628
6.95844
7.13284
7.27893
7.39182
7.46919
7.51118
7.51994
7.49897
7.4526
7.38561
7.30316
7.21102
7.11562
7.02369
6.94102
6.87085
6.81264
6.76242
6.71494
6.66674
6.61819
6.57314
6.53585
6.50697
6.48071
6.44457
6.38207
6.27685
6.11683
5.89717
5.62143
5.30104
4.95326
4.59822
4.25549
3.94105
3.66534
3.43271
3.24228
3.08963
2.96866
2.87309
2.79738
2.73705
2.6887
2.64974
2.61826
2.59275
2.57205
2.55524
2.54157
2.53043
2.52135
2.51393
2.50785
2.50285
2.49872
2.4953
2.49243
2.49002
2.48798
2.48623
2.48471
2.48339
2.48223
2.48119
2.48026
2.47942
2.47859
2.47817
2.47601
4.18931
4.17694
4.16726
4.16143
4.16059
4.16567
4.17736
4.19607
4.22191
4.25459
4.29374
4.33897
4.39
4.44671
4.50919
4.57781
4.65324
4.73646
4.82874
4.93155
5.04636
5.17446
5.31662
5.47279
5.64185
5.82132
6.00732
6.19461
6.37693
6.54757
6.7001
6.82906
6.9306
7.0027
7.04521
7.0595
7.04808
7.01419
6.96154
6.89429
6.81726
6.73608
6.65695
6.58554
6.52535
6.4763
6.4347
6.39508
6.35329
6.30893
6.26563
6.2285
6.20014
6.17727
6.14985
6.10298
6.0207
5.89012
5.70453
5.465
5.18023
4.86499
4.53755
4.21646
3.91765
3.65224
3.42578
3.23868
3.08765
2.96744
2.87226
2.79682
2.73675
2.68864
2.64991
2.61859
2.5932
2.57256
2.55576
2.54204
2.53082
2.52163
2.51408
2.50785
2.50269
2.49841
2.49482
2.49181
2.48926
2.48708
2.48521
2.48358
2.48216
2.48091
2.47979
2.47878
2.47789
2.477
2.47653
2.47431
4.0973
4.08067
4.06626
4.05497
4.04774
4.04543
4.04879
4.05841
4.07462
4.09762
4.12745
4.16411
4.20754
4.25778
4.31493
4.37927
4.45125
4.5315
4.62078
4.71994
4.82976
4.95082
5.08326
5.22661
5.37957
5.5399
5.70435
5.86872
6.02812
6.17735
6.31143
6.42606
6.51807
6.58568
6.62847
6.64724
6.64371
6.62027
6.57978
6.52555
6.46163
6.39292
6.32512
6.26375
6.21251
6.17179
6.13823
6.10624
6.07104
6.03135
5.9903
5.95341
5.92476
5.90334
5.88146
5.846
5.78179
5.67557
5.51925
5.31179
5.05945
4.77463
4.47367
4.17392
3.89097
3.63638
3.41664
3.23332
3.08423
2.96493
2.87021
2.79506
2.73524
2.68737
2.64887
2.61776
2.59254
2.57203
2.5553
2.54162
2.5304
2.52118
2.51357
2.50727
2.50203
2.49765
2.49397
2.49086
2.48821
2.48595
2.48399
2.48229
2.48079
2.47947
2.4783
2.47724
2.4763
2.47536
2.47487
2.4726
4.05112
4.03161
4.01394
3.99884
3.98708
3.97944
3.97664
3.97929
3.98787
4.00278
4.0243
4.05264
4.08796
4.1304
4.18015
4.23745
4.30264
4.37609
4.45827
4.5496
4.65044
4.76091
4.88082
5.00948
5.14561
5.28722
5.43163
5.57545
5.71483
5.84569
5.96405
6.06646
6.15026
6.2138
6.25647
6.27864
6.28144
6.26657
6.23623
6.19306
6.1404
6.08254
6.02469
5.97217
5.9289
5.89566
5.86947
5.84476
5.81615
5.78149
5.74321
5.70688
5.67765
5.65641
5.63769
5.61024
5.55994
5.47356
5.34206
5.16271
4.93961
4.68296
4.40717
4.12827
3.86127
3.61791
3.4054
3.22632
3.07949
2.9613
2.86712
2.79228
2.7327
2.68506
2.64678
2.61589
2.59086
2.57051
2.5539
2.54032
2.52917
2.51998
2.51237
2.50606
2.5008
2.49638
2.49266
2.4895
2.48681
2.48449
2.48249
2.48074
2.4792
2.47784
2.47663
2.47554
2.47456
2.47361
2.47309
2.47079
4.02966
4.00835
3.98859
3.97096
3.95611
3.94469
3.93737
3.93476
3.93738
3.94572
3.96015
3.98102
4.0086
4.04312
4.08483
4.13396
4.19077
4.25552
4.32847
4.40982
4.49966
4.5979
4.70417
4.81772
4.93737
5.0614
5.18757
5.31317
5.43509
5.55006
5.65486
5.74665
5.82314
5.88279
5.92487
5.94941
5.9571
5.94913
5.92715
5.89323
5.85016
5.80165
5.75247
5.70772
5.67145
5.64485
5.62535
5.60744
5.58529
5.5559
5.52085
5.4855
5.45571
5.43392
5.41668
5.39458
5.35475
5.28428
5.17359
5.01861
4.82163
4.59083
4.33875
4.08001
3.82888
3.59703
3.3922
3.21779
3.07356
2.9567
2.86317
2.78868
2.72933
2.6819
2.64383
2.61313
2.5883
2.56812
2.55167
2.53821
2.52716
2.51805
2.51051
2.50424
2.49899
2.49459
2.49087
2.4877
2.485
2.48267
2.48064
2.47888
2.47732
2.47595
2.47472
2.47361
2.47262
2.47165
2.47112
2.46881
4.02043
3.99807
3.97702
3.95776
3.9408
3.92673
3.91612
3.90954
3.90752
3.91054
3.91904
3.9334
3.95396
3.98101
4.01482
4.05562
4.10364
4.15908
4.22209
4.29274
4.37102
4.45672
4.54941
4.64838
4.75257
4.86051
4.97035
5.07986
5.18651
5.28763
5.38059
5.46296
5.53276
5.58856
5.62955
5.65552
5.66683
5.66428
5.64906
5.62282
5.58783
5.54732
5.50563
5.46764
5.43748
5.41671
5.40319
5.39155
5.37562
5.35156
5.32011
5.28618
5.25603
5.23336
5.21646
5.19773
5.16559
5.10771
5.01428
4.88024
4.70638
4.49909
4.26913
4.02971
3.7942
3.57402
3.37722
3.20788
3.06658
2.95129
2.85854
2.78444
2.72534
2.67809
2.6402
2.6097
2.58504
2.56503
2.54874
2.53543
2.5245
2.5155
2.50805
2.50184
2.49666
2.4923
2.48861
2.48547
2.48278
2.48046
2.47845
2.47669
2.47514
2.47376
2.47253
2.47142
2.47043
2.46946
2.46892
2.46661
4.01664
3.99368
3.97184
3.9515
3.93311
3.91714
3.90409
3.89449
3.88881
3.88752
3.89107
3.89985
3.91421
3.93448
3.96093
3.99381
4.03333
4.07965
4.13288
4.19304
4.26007
4.33373
4.4136
4.49904
4.58911
4.68259
4.77791
4.87322
4.96646
5.0554
5.13784
5.21172
5.2753
5.32723
5.36666
5.39324
5.40707
5.40865
5.39883
5.37887
5.35063
5.31691
5.28165
5.24949
5.22461
5.20892
5.20068
5.19475
5.18469
5.16594
5.13834
5.10623
5.07602
5.05237
5.03511
5.01829
4.99165
4.94362
4.86436
4.74818
4.59462
4.40853
4.19905
3.97796
3.75766
3.54917
3.36065
3.19674
3.05869
2.9452
2.85338
2.77976
2.72091
2.67386
2.63613
2.60578
2.58128
2.56143
2.54529
2.53212
2.52133
2.51244
2.50509
2.49898
2.49388
2.48958
2.48595
2.48286
2.48021
2.47792
2.47594
2.4742
2.47266
2.4713
2.47008
2.46898
2.468
2.46703
2.4665
2.46419
4.01501
3.99168
3.96932
3.94823
3.92879
3.9114
3.89648
3.88449
3.87588
3.87107
3.87048
3.8745
3.88348
3.89774
3.91758
3.94322
3.97488
4.01272
4.05682
4.10719
4.16376
4.2263
4.29444
4.3676
4.44499
4.52556
4.60801
4.69079
4.77217
4.8503
4.92331
4.98944
5.04714
5.09517
5.13266
5.15917
5.1746
5.17922
5.17361
5.15872
5.13606
5.10806
5.07827
5.05111
5.03078
5.01945
5.01584
5.01505
5.01046
4.99688
4.97327
4.9433
4.91335
4.8888
4.87078
4.85483
4.83203
4.79159
4.7239
4.62282
4.48698
4.31987
4.12917
3.92532
3.7197
3.52278
3.34272
3.1845
3.05
2.93855
2.84782
2.77477
2.71623
2.66936
2.63178
2.60157
2.57721
2.5575
2.5415
2.52847
2.5178
2.50904
2.5018
2.49579
2.49077
2.48655
2.48299
2.47996
2.47736
2.47512
2.47317
2.47146
2.46995
2.46862
2.46742
2.46634
2.46537
2.46441
2.46389
2.4616
4.01411
3.99052
3.96776
3.9461
3.92584
3.90732
3.89091
3.87699
3.86597
3.85823
3.85416
3.85413
3.85846
3.86748
3.88147
3.90066
3.92527
3.95544
3.99127
4.03277
4.07986
4.13237
4.18995
4.25213
4.31821
4.38732
4.45835
4.53002
4.60088
4.66935
4.73385
4.79285
4.84497
4.88909
4.92434
4.95021
4.96648
4.97323
4.97083
4.95999
4.94191
4.91868
4.89352
4.87061
4.85414
4.84655
4.84694
4.85072
4.85119
4.84258
4.82301
4.79544
4.76605
4.74074
4.72175
4.70598
4.68574
4.6511
4.59278
4.50443
4.38393
4.23371
4.06013
3.87236
3.68075
3.49518
3.32362
3.17131
3.04062
2.93144
2.84198
2.7696
2.71142
2.66476
2.62733
2.59724
2.573
2.55342
2.53754
2.52463
2.51408
2.50543
2.4983
2.49239
2.48746
2.48333
2.47984
2.47688
2.47434
2.47215
2.47024
2.46857
2.4671
2.46579
2.46462
2.46356
2.46261
2.46167
2.46116
2.45889
4.01339
3.98958
3.96649
3.94435
3.92341
3.90396
3.88631
3.87079
3.85775
3.84755
3.84053
3.83702
3.83736
3.84183
3.85071
3.86423
3.8826
3.90596
3.93442
3.968
4.00664
4.0502
4.09838
4.15079
4.20683
4.26578
4.32669
4.38849
4.44996
4.50975
4.56652
4.61894
4.66579
4.70602
4.73881
4.76361
4.7801
4.78824
4.78822
4.78053
4.76616
4.74688
4.72561
4.7063
4.6931
4.68866
4.69249
4.70031
4.70539
4.70151
4.68596
4.66098
4.63241
4.60653
4.58649
4.57042
4.55179
4.52154
4.47078
4.39309
4.28584
4.15055
3.99246
3.81957
3.64124
3.46667
3.30358
3.15733
3.03065
2.92394
2.83592
2.76433
2.70657
2.66016
2.62288
2.59292
2.56879
2.54932
2.53355
2.52075
2.51031
2.50177
2.49474
2.48892
2.48409
2.48004
2.47663
2.47373
2.47125
2.46911
2.46726
2.46563
2.4642
2.46292
2.46178
2.46074
2.45981
2.45889
2.4584
2.45614
4.01268
3.98866
3.96528
3.94272
3.92119
3.90093
3.88222
3.86534
3.8506
3.8383
3.82876
3.82228
3.81918
3.81971
3.82415
3.83272
3.84561
3.86298
3.88493
3.91151
3.94267
3.97829
4.01815
4.06189
4.10904
4.15897
4.21091
4.26392
4.31699
4.36897
4.41871
4.46504
4.5069
4.54331
4.5735
4.5969
4.61313
4.62205
4.62372
4.61846
4.60705
4.59102
4.57298
4.55669
4.54622
4.54442
4.55117
4.56252
4.5718
4.57236
4.56077
4.53849
4.51099
4.48473
4.46365
4.44698
4.42926
4.40226
4.35756
4.28879
4.19292
4.07078
3.92663
3.76743
3.60158
3.43758
3.28282
3.14268
3.02018
2.91614
2.82971
2.75902
2.70177
2.65564
2.61854
2.58871
2.56468
2.54531
2.52964
2.51694
2.5066
2.49816
2.49122
2.4855
2.48075
2.47678
2.47344
2.47061
2.4682
2.46611
2.46431
2.46272
2.46133
2.46008
2.45897
2.45796
2.45705
2.45615
2.45567
2.45343
4.01193
3.98771
3.96405
3.94111
3.91906
3.8981
3.87848
3.86043
3.84422
3.83012
3.81842
3.8094
3.80332
3.80045
3.80103
3.80528
3.81339
3.82551
3.84175
3.86215
3.88671
3.91533
3.94782
3.98391
4.02318
4.06512
4.10906
4.15425
4.19979
4.24472
4.28805
4.32877
4.36592
4.39862
4.42614
4.4479
4.4635
4.47272
4.47551
4.47207
4.463
4.44959
4.43423
4.42045
4.41224
4.41263
4.42183
4.43624
4.4493
4.45402
4.44629
4.42679
4.40055
4.37411
4.35206
4.33458
4.31724
4.29262
4.25276
4.1914
4.1053
3.99469
3.86303
3.71634
3.56212
3.40819
3.26156
3.12752
3.0093
2.90807
2.82338
2.75372
2.69705
2.65125
2.61435
2.58466
2.56075
2.54147
2.5259
2.51329
2.50304
2.49469
2.48784
2.48221
2.47754
2.47365
2.47038
2.46761
2.46525
2.46323
2.46147
2.45993
2.45857
2.45736
2.45627
2.45529
2.4544
2.45352
2.45306
2.45084
4.01113
3.98672
3.9628
3.93951
3.91699
3.89541
3.87499
3.85592
3.83845
3.82281
3.80925
3.79803
3.78939
3.78358
3.78081
3.78131
3.78524
3.79277
3.80399
3.81897
3.83772
3.86016
3.88615
3.91546
3.94776
3.98261
4.01945
4.05764
4.09643
4.13501
4.17251
4.20804
4.24077
4.26989
4.29472
4.3147
4.32938
4.33852
4.34198
4.33985
4.33258
4.32129
4.30812
4.2964
4.29005
4.29222
4.30344
4.32049
4.33693
4.34552
4.34152
4.32486
4.30005
4.27362
4.25069
4.23229
4.21494
4.19199
4.15597
4.10078
4.02303
3.92249
3.80197
3.66664
3.5232
3.3788
3.24001
3.112
2.99811
2.89981
2.81697
2.74843
2.69242
2.64701
2.61035
2.58081
2.55702
2.53784
2.52236
2.50983
2.49968
2.49141
2.48465
2.47909
2.4745
2.47068
2.46748
2.46478
2.46248
2.4605
2.45879
2.45729
2.45597
2.45479
2.45373
2.45277
2.45191
2.45104
2.4506
2.4484
4.01029
3.9857
3.96154
3.93792
3.91497
3.89285
3.87172
3.85177
3.8332
3.81622
3.80106
3.78794
3.77709
3.76873
3.76306
3.76029
3.76059
3.7641
3.77093
3.78115
3.79478
3.81178
3.83204
3.85536
3.88148
3.91003
3.94055
3.9725
4.00524
4.03807
4.07025
4.10102
4.12961
4.15532
4.17749
4.19558
4.20916
4.21791
4.22167
4.22044
4.21453
4.20491
4.19352
4.18348
4.17863
4.18223
4.19511
4.2144
4.23384
4.24602
4.24561
4.23181
4.20859
4.18237
4.15866
4.1393
4.12166
4.09982
4.06681
4.01673
3.94609
3.85435
3.74372
3.61867
3.48516
3.34969
3.21839
3.09627
2.98672
2.8914
2.81052
2.7432
2.68792
2.64294
2.60654
2.57718
2.55351
2.53443
2.51905
2.50661
2.49654
2.48835
2.48167
2.47619
2.47167
2.46792
2.46479
2.46215
2.4599
2.45797
2.4563
2.45484
2.45356
2.45241
2.45138
2.45044
2.4496
2.44876
2.44832
2.44614
4.00943
3.98466
3.96026
3.93634
3.91301
3.8904
3.86865
3.84793
3.8284
3.81027
3.79372
3.77896
3.76619
3.75562
3.74743
3.74182
3.73895
3.73895
3.74194
3.74799
3.75713
3.76934
3.78453
3.80256
3.82321
3.84617
3.87106
3.89743
3.92473
3.95238
3.97973
4.00611
4.03085
4.05331
4.07289
4.08905
4.10138
4.10954
4.11331
4.11262
4.10772
4.09939
4.08942
4.08073
4.07709
4.08181
4.09601
4.11718
4.13928
4.15477
4.15781
4.1469
4.1254
4.09958
4.07524
4.05491
4.03676
4.0156
3.98492
3.93905
3.87448
3.79038
3.6885
3.57271
3.44828
3.32112
3.19694
3.08051
2.97522
2.88293
2.80407
2.73802
2.68353
2.63904
2.60294
2.57376
2.55023
2.53126
2.51597
2.50362
2.49363
2.48552
2.47892
2.47351
2.46907
2.46538
2.46231
2.45972
2.45753
2.45565
2.45402
2.4526
2.45135
2.45023
2.44923
2.44831
2.44749
2.44666
2.44624
2.44408
4.00855
3.98361
3.959
3.9348
3.91112
3.88807
3.86577
3.84437
3.82401
3.80487
3.78711
3.77093
3.7565
3.74402
3.73365
3.72557
3.71993
3.71687
3.71649
3.71888
3.72408
3.73206
3.74279
3.75615
3.77194
3.78994
3.80982
3.8312
3.85363
3.8766
3.89956
3.92192
3.94309
3.96248
3.97954
3.99379
4.00478
4.01217
4.01573
4.01533
4.01111
4.00378
3.99492
3.9873
3.98459
3.99016
4.00539
4.02812
4.05257
4.07112
4.07748
4.06947
4.04984
4.02461
3.9998
3.97853
3.95975
3.93891
3.91001
3.8676
3.80818
3.73071
3.63657
3.52906
3.41289
3.29341
3.17589
3.0649
2.96377
2.87447
2.79765
2.73294