/*--------------------------------*- C++ -*----------------------------------*\
| =========                 |                                                 |
| \\      /  F ield         | OpenFOAM: The Open Source CFD Toolbox           |
|  \\    /   O peration     | Version:  2.1.1                                 |
|   \\  /    A nd           | Web:      www.OpenFOAM.org                      |
|    \\/     M anipulation  |                                                 |
\*---------------------------------------------------------------------------*/
FoamFile
{
    version     2.0;
    format      ascii;
    class       volScalarField;
    location    "0.035";
    object      k;
}
// * * * * * * * * * * * * * * * * * * * * * * * * * * * * * * * * * * * * * //

dimensions      [0 2 -2 0 0 0 0];

internalField   nonuniform List<scalar> 
6820
(
0.288909
0.351397
0.415004
0.477467
0.536867
0.591578
0.640419
0.68272
0.718282
0.747281
0.770167
0.787558
0.800158
0.808686
0.813833
0.816232
0.816446
0.814959
0.81218
0.808448
0.80404
0.799176
0.79403
0.788739
0.783403
0.778094
0.772861
0.767742
0.762684
0.757972
0.752156
0.751983
0.724572
0.265532
0.269395
0.270521
0.271336
0.272546
0.274188
0.276176
0.278396
0.280734
0.283105
0.285451
0.287741
0.289966
0.292128
0.294243
0.296327
0.2984
0.30048
0.302585
0.304728
0.30692
0.309171
0.311489
0.313883
0.316361
0.318938
0.321634
0.324479
0.327522
0.33086
0.334583
0.339174
0.344477
0.262038
0.264255
0.2636
0.261562
0.259007
0.256325
0.253633
0.250944
0.248244
0.245527
0.242794
0.240058
0.237338
0.234656
0.232034
0.229493
0.22705
0.224721
0.222518
0.220449
0.218521
0.216737
0.215098
0.213606
0.212259
0.211056
0.209997
0.209083
0.208314
0.207707
0.207258
0.207025
0.207007
0.259884
0.260271
0.259795
0.258533
0.256828
0.254892
0.252836
0.250714
0.248553
0.246366
0.244163
0.241948
0.23973
0.237515
0.235312
0.233127
0.230968
0.228842
0.226756
0.224715
0.222723
0.220785
0.218904
0.217081
0.215317
0.213614
0.21197
0.210385
0.208857
0.207384
0.205961
0.204595
0.203259
0.259299
0.258404
0.257599
0.256567
0.255295
0.253851
0.252294
0.250665
0.24899
0.247285
0.245562
0.243829
0.242092
0.240357
0.238628
0.236909
0.235205
0.233518
0.231853
0.23021
0.228595
0.227007
0.225449
0.223923
0.22243
0.220969
0.219541
0.218145
0.216782
0.21545
0.214149
0.212878
0.211633
0.259224
0.257848
0.256622
0.255436
0.254227
0.252971
0.251664
0.250315
0.248934
0.247529
0.24611
0.244683
0.243254
0.241826
0.240404
0.23899
0.237588
0.236198
0.234825
0.233469
0.232131
0.230814
0.229518
0.228244
0.226992
0.225764
0.224558
0.223376
0.222218
0.221083
0.219972
0.218888
0.217831
0.259217
0.257715
0.256309
0.25498
0.253699
0.252443
0.251198
0.249954
0.248709
0.247461
0.246214
0.244968
0.243725
0.242489
0.241261
0.240043
0.238837
0.237644
0.236465
0.235301
0.234154
0.233024
0.231912
0.230818
0.229742
0.228686
0.227649
0.226631
0.225633
0.224656
0.223701
0.222771
0.22187
0.259218
0.25769
0.256224
0.254822
0.253478
0.252182
0.250925
0.249699
0.248496
0.247313
0.246145
0.244993
0.243854
0.24273
0.241619
0.240522
0.23944
0.238373
0.237322
0.236286
0.235267
0.234265
0.23328
0.232311
0.23136
0.230427
0.229511
0.228613
0.227735
0.226876
0.226039
0.225227
0.224443
0.259218
0.257686
0.256207
0.25478
0.253406
0.252081
0.250801
0.249563
0.248361
0.247192
0.246051
0.244936
0.243845
0.242776
0.241727
0.240699
0.23969
0.238699
0.237727
0.236773
0.235837
0.234919
0.234018
0.233135
0.232269
0.231421
0.230591
0.22978
0.228986
0.228214
0.227463
0.226737
0.22604
0.259218
0.257686
0.256203
0.254769
0.253384
0.252046
0.250753
0.249503
0.248293
0.24712
0.245983
0.244878
0.243803
0.242755
0.241735
0.240739
0.239767
0.238817
0.23789
0.236983
0.236096
0.235229
0.234382
0.233554
0.232744
0.231953
0.23118
0.230427
0.229693
0.22898
0.228289
0.227624
0.226988
0.259218
0.257685
0.256202
0.254767
0.253378
0.252035
0.250737
0.24948
0.248264
0.247086
0.245946
0.24484
0.243767
0.242726
0.241715
0.240731
0.239775
0.238844
0.237937
0.237055
0.236194
0.235356
0.234539
0.233742
0.232966
0.23221
0.231473
0.230757
0.230062
0.229388
0.228737
0.228112
0.227516
0.259218
0.257685
0.256201
0.254765
0.253376
0.252032
0.250731
0.249471
0.248252
0.247072
0.245928
0.24482
0.243746
0.242705
0.241695
0.240715
0.239763
0.238839
0.237941
0.237068
0.23622
0.235395
0.234593
0.233814
0.233055
0.232318
0.231603
0.230908
0.230235
0.229585
0.228959
0.228358
0.227786
0.259218
0.257685
0.256201
0.254765
0.253375
0.25203
0.250728
0.249468
0.248247
0.247065
0.24592
0.24481
0.243735
0.242692
0.241682
0.240701
0.23975
0.238828
0.237932
0.237063
0.23622
0.2354
0.234605
0.233832
0.233083
0.232355
0.23165
0.230967
0.230306
0.229669
0.229056
0.228469
0.22791
0.259218
0.257685
0.256201
0.254764
0.253374
0.252029
0.250727
0.249466
0.248244
0.247061
0.245915
0.244805
0.243728
0.242685
0.241673
0.240692
0.239741
0.238818
0.237923
0.237055
0.236212
0.235394
0.234601
0.233832
0.233085
0.232362
0.231662
0.230984
0.230329
0.229698
0.229091
0.228511
0.227958
0.259218
0.257685
0.2562
0.254764
0.253374
0.252028
0.250725
0.249464
0.248242
0.247059
0.245912
0.244801
0.243724
0.24268
0.241667
0.240686
0.239734
0.238811
0.237915
0.237046
0.236204
0.235386
0.234594
0.233825
0.23308
0.232358
0.23166
0.230984
0.230332
0.229703
0.229099
0.228521
0.227969
0.259218
0.257685
0.2562
0.254763
0.253373
0.252027
0.250724
0.249462
0.24824
0.247056
0.245909
0.244798
0.24372
0.242675
0.241663
0.24068
0.239728
0.238804
0.237908
0.237039
0.236196
0.235379
0.234586
0.233817
0.233072
0.232351
0.231653
0.230978
0.230326
0.229698
0.229095
0.228516
0.227964
0.259218
0.257684
0.2562
0.254763
0.253373
0.252027
0.250723
0.249461
0.248239
0.247054
0.245907
0.244795
0.243717
0.242672
0.241658
0.240676
0.239723
0.238799
0.237902
0.237033
0.236189
0.235371
0.234578
0.233809
0.233064
0.232343
0.231645
0.23097
0.230318
0.229689
0.229085
0.228505
0.227951
0.259218
0.257684
0.2562
0.254763
0.253372
0.252026
0.250722
0.24946
0.248237
0.247053
0.245905
0.244792
0.243714
0.242668
0.241655
0.240671
0.239718
0.238793
0.237896
0.237026
0.236182
0.235364
0.234571
0.233801
0.233056
0.232334
0.231635
0.23096
0.230307
0.229678
0.229073
0.228491
0.227934
0.259218
0.257684
0.2562
0.254763
0.253372
0.252025
0.250722
0.249459
0.248236
0.247051
0.245903
0.24479
0.243711
0.242665
0.241651
0.240667
0.239713
0.238788
0.237891
0.23702
0.236176
0.235357
0.234563
0.233793
0.233047
0.232325
0.231625
0.230949
0.230296
0.229665
0.229058
0.228474
0.227914
0.259218
0.257684
0.256199
0.254762
0.253371
0.252025
0.250721
0.249458
0.248235
0.24705
0.245901
0.244788
0.243709
0.242662
0.241648
0.240663
0.239709
0.238783
0.237885
0.237014
0.236169
0.23535
0.234555
0.233785
0.233038
0.232315
0.231615
0.230937
0.230283
0.229651
0.229041
0.228455
0.227892
0.259218
0.257684
0.256199
0.254762
0.253371
0.252024
0.25072
0.249457
0.248234
0.247048
0.245899
0.244786
0.243706
0.242659
0.241644
0.24066
0.239705
0.238779
0.23788
0.237008
0.236163
0.235343
0.234547
0.233776
0.233029
0.232304
0.231603
0.230924
0.230268
0.229635
0.229023
0.228435
0.227868
0.259218
0.257684
0.256199
0.254762
0.253371
0.252024
0.25072
0.249457
0.248233
0.247047
0.245898
0.244784
0.243704
0.242657
0.241641
0.240656
0.239701
0.238774
0.237875
0.237002
0.236156
0.235335
0.234539
0.233767
0.233019
0.232293
0.231591
0.230911
0.230253
0.229618
0.229004
0.228412
0.227843
0.259218
0.257684
0.256199
0.254762
0.253371
0.252024
0.250719
0.249456
0.248232
0.247046
0.245897
0.244782
0.243702
0.242654
0.241638
0.240653
0.239697
0.238769
0.23787
0.236997
0.23615
0.235328
0.234531
0.233758
0.233009
0.232282
0.231578
0.230897
0.230237
0.2296
0.228984
0.228389
0.227817
0.259218
0.257684
0.256199
0.254762
0.253371
0.252024
0.250719
0.249456
0.248231
0.247045
0.245895
0.244781
0.2437
0.242652
0.241636
0.24065
0.239693
0.238765
0.237865
0.236991
0.236143
0.235321
0.234523
0.233749
0.232998
0.232271
0.231565
0.230882
0.230221
0.229581
0.228963
0.228366
0.227789
0.259218
0.257684
0.256199
0.254762
0.25337
0.252023
0.250719
0.249455
0.248231
0.247044
0.245894
0.244779
0.243698
0.24265
0.241633
0.240646
0.239689
0.238761
0.23786
0.236985
0.236137
0.235313
0.234515
0.23374
0.232988
0.232259
0.231552
0.230867
0.230204
0.229562
0.228941
0.228341
0.227762
0.259218
0.257684
0.256199
0.254762
0.25337
0.252023
0.250718
0.249455
0.24823
0.247043
0.245893
0.244778
0.243697
0.242648
0.24163
0.240643
0.239686
0.238757
0.237855
0.23698
0.236131
0.235306
0.234506
0.23373
0.232977
0.232247
0.231539
0.230852
0.230187
0.229543
0.22892
0.228317
0.227735
0.259218
0.257684
0.256199
0.254762
0.25337
0.252023
0.250718
0.249454
0.24823
0.247043
0.245892
0.244777
0.243695
0.242646
0.241628
0.240641
0.239682
0.238753
0.23785
0.236974
0.236124
0.235299
0.234498
0.233721
0.232967
0.232235
0.231526
0.230838
0.230171
0.229524
0.228899
0.228293
0.227708
0.259218
0.257684
0.256199
0.254762
0.25337
0.252023
0.250718
0.249454
0.248229
0.247042
0.245891
0.244776
0.243694
0.242644
0.241626
0.240638
0.239679
0.238749
0.237846
0.236969
0.236118
0.235292
0.234491
0.233712
0.232957
0.232224
0.231513
0.230823
0.230154
0.229506
0.228878
0.22827
0.227682
0.259218
0.257684
0.256199
0.254762
0.25337
0.252023
0.250718
0.249454
0.248229
0.247041
0.24589
0.244774
0.243692
0.242642
0.241624
0.240635
0.239676
0.238745
0.237842
0.236964
0.236113
0.235286
0.234483
0.233704
0.232947
0.232213
0.2315
0.230809
0.230138
0.229488
0.228858
0.228248
0.227657
0.259218
0.257684
0.256199
0.254762
0.25337
0.252023
0.250718
0.249454
0.248229
0.247041
0.24589
0.244774
0.243692
0.242642
0.241623
0.240634
0.239674
0.238743
0.237838
0.23696
0.236108
0.23528
0.234477
0.233696
0.232939
0.232203
0.231489
0.230796
0.230124
0.229472
0.22884
0.228228
0.227634
0.259218
0.257684
0.256199
0.254762
0.25337
0.252023
0.250718
0.249454
0.248228
0.247041
0.24589
0.244773
0.243691
0.24264
0.241621
0.240632
0.239672
0.23874
0.237835
0.236957
0.236103
0.235275
0.23447
0.233689
0.232931
0.232194
0.231479
0.230785
0.230111
0.229457
0.228824
0.228209
0.227613
0.259218
0.257684
0.256199
0.254762
0.253371
0.252024
0.25072
0.249456
0.248231
0.247044
0.245893
0.244776
0.243693
0.242643
0.241623
0.240634
0.239673
0.238741
0.237836
0.236957
0.236103
0.235274
0.234468
0.233686
0.232926
0.232189
0.231472
0.230777
0.230102
0.229447
0.228811
0.228194
0.227596
0.259218
0.257685
0.256201
0.254764
0.253373
0.252026
0.250722
0.249458
0.248233
0.247045
0.245894
0.244778
0.243695
0.242645
0.241625
0.240636
0.239675
0.238743
0.237837
0.236957
0.236103
0.235273
0.234467
0.233684
0.232923
0.232184
0.231466
0.230769
0.230092
0.229435
0.228797
0.228178
0.227578
0.259218
0.257685
0.256201
0.254766
0.253378
0.252033
0.250731
0.249469
0.248246
0.247059
0.245909
0.244793
0.24371
0.24266
0.24164
0.24065
0.239688
0.238755
0.237848
0.236967
0.236111
0.235279
0.23447
0.233685
0.232921
0.232179
0.231458
0.230757
0.230075
0.229414
0.228771
0.228146
0.22754
0.259219
0.257689
0.25621
0.254778
0.253391
0.252047
0.250745
0.249484
0.248261
0.247075
0.245925
0.244809
0.243725
0.242674
0.241652
0.24066
0.239696
0.238759
0.237847
0.236961
0.236099
0.235261
0.234445
0.233652
0.232879
0.232128
0.231396
0.230685
0.229992
0.229318
0.228662
0.228024
0.227403
0.25922
0.257694
0.256221
0.254799
0.253423
0.25209
0.250795
0.249539
0.248318
0.247131
0.245977
0.244855
0.243764
0.242702
0.241668
0.240662
0.239682
0.238728
0.237798
0.236892
0.236008
0.235147
0.234308
0.233489
0.232691
0.231913
0.231153
0.230413
0.229691
0.228987
0.2283
0.22763
0.226977
0.259229
0.257739
0.256294
0.254885
0.253512
0.252175
0.250874
0.249606
0.248369
0.247162
0.245983
0.244832
0.243708
0.24261
0.241538
0.24049
0.239467
0.238467
0.23749
0.236536
0.235604
0.234694
0.233804
0.232934
0.232085
0.231255
0.230443
0.229651
0.228876
0.228119
0.227379
0.226656
0.22595
0.259264
0.257822
0.256452
0.255123
0.2538
0.252477
0.251155
0.249843
0.248546
0.247271
0.246022
0.244801
0.243609
0.242446
0.241313
0.240209
0.239134
0.238086
0.237065
0.23607
0.235101
0.234156
0.233235
0.232337
0.231463
0.23061
0.22978
0.228971
0.228183
0.227416
0.22667
0.225943
0.225237
0.2596
0.258634
0.25758
0.256544
0.255592
0.254721
0.253918
0.253171
0.252476
0.25183
0.251234
0.250687
0.250191
0.249745
0.24935
0.249005
0.24871
0.248466
0.248271
0.248124
0.248027
0.247977
0.247975
0.24802
0.248113
0.248252
0.248438
0.24867
0.248948
0.249272
0.249642
0.250057
0.250516
0.266719
0.28057
0.294242
0.307623
0.320668
0.333362
0.345691
0.357645
0.369215
0.380397
0.391187
0.401582
0.411585
0.421197
0.430421
0.439264
0.44773
0.455828
0.463565
0.47095
0.477991
0.484698
0.491079
0.497146
0.502907
0.508372
0.513551
0.518453
0.523088
0.527465
0.531593
0.535479
0.539138
0.846429
1.0558
1.34802
1.70038
2.03163
2.26234
2.37798
2.41667
2.42386
2.42645
2.43235
2.43951
2.44333
2.43893
2.41908
2.37664
2.30315
2.18827
2.02069
1.79127
1.49942
1.16239
0.823047
0.543669
0.37547
0.320469
0.331612
0.365049
0.403084
0.43986
0.472736
0.500237
0.521595
0.536717
0.546105
0.550635
0.551349
0.549304
0.545496
0.540816
0.536007
0.531611
0.52793
0.525036
0.522831
0.521144
0.519795
0.5186
0.517316
0.515572
0.512828
0.508394
0.501523
0.491535
0.477945
0.46057
0.439592
0.415561
0.389355
0.362084
0.334954
0.309114
0.285508
0.26477
0.247178
0.232689
0.221019
0.211754
0.204449
0.198693
0.194147
0.19055
0.187703
0.185455
0.183689
0.182312
0.181246
0.180428
0.179806
0.179338
0.17899
0.178735
0.17855
0.178419
0.178328
0.178267
0.178227
0.178202
0.178188
0.178181
0.178178
0.178178
0.178179
0.17818
0.178181
0.178181
0.17818
0.178176
0.178181
0.17813
0.353994
0.376102
0.423603
0.518179
0.681161
0.913033
1.18687
1.46008
1.69385
1.86735
1.97879
2.03883
2.05255
2.02678
1.9675
1.87479
1.74459
1.57242
1.35761
1.10823
0.845491
0.603886
0.422196
0.323676
0.297772
0.311137
0.338552
0.37013
0.402118
0.43241
0.459476
0.482163
0.499807
0.5123
0.520018
0.523652
0.524038
0.522039
0.518482
0.514129
0.509631
0.505485
0.501978
0.499191
0.497042
0.495383
0.494064
0.492957
0.491896
0.4906
0.48861
0.485291
0.47991
0.471759
0.46029
0.445231
0.426658
0.405012
0.381067
0.355842
0.330474
0.306075
0.283586
0.263663
0.246632
0.232509
0.221065
0.211936
0.204709
0.198997
0.194476
0.190889
0.18804
0.185782
0.184
0.182601
0.181511
0.180667
0.180019
0.179526
0.179154
0.178876
0.178671
0.178522
0.178414
0.178338
0.178285
0.178249
0.178225
0.178209
0.178199
0.178192
0.178187
0.178183
0.178179
0.178175
0.178171
0.178164
0.178167
0.178112
0.20703
0.207747
0.209895
0.215643
0.231015
0.265356
0.327783
0.42257
0.544637
0.680135
0.81156
0.921595
1.00082
1.03979
1.03305
0.981002
0.889005
0.766713
0.628314
0.492593
0.380463
0.30813
0.278595
0.2799
0.296259
0.318816
0.344362
0.371143
0.397698
0.422721
0.445045
0.463754
0.478317
0.488637
0.494999
0.497942
0.49813
0.49626
0.493014
0.489034
0.484892
0.481038
0.477751
0.475116
0.473063
0.471453
0.470158
0.469086
0.468144
0.467143
0.465721
0.463318
0.459238
0.45276
0.443281
0.430441
0.414205
0.394898
0.37318
0.349971
0.326335
0.303342
0.281927
0.262774
0.246261
0.232461
0.221207
0.212182
0.205011
0.199329
0.194821
0.191236
0.188382
0.186111
0.18431
0.182887
0.181771
0.180899
0.180223
0.179703
0.179305
0.179004
0.178777
0.178607
0.178481
0.178389
0.178322
0.178273
0.178237
0.178211
0.178192
0.178178
0.178166
0.178156
0.178147
0.178139
0.178131
0.178121
0.178121
0.178063
0.20179
0.200194
0.198454
0.196315
0.193907
0.192688
0.194983
0.202224
0.215538
0.235247
0.25961
0.28432
0.307027
0.323984
0.33149
0.327575
0.313216
0.292585
0.27206
0.257951
0.253733
0.258817
0.270232
0.285553
0.303794
0.324294
0.346224
0.368687
0.390745
0.411434
0.429853
0.445287
0.457319
0.465866
0.471144
0.47357
0.473666
0.471989
0.469095
0.465523
0.461769
0.458244
0.455215
0.452773
0.450858
0.449333
0.448075
0.447017
0.44612
0.445286
0.444255
0.442563
0.43957
0.434562
0.426895
0.416125
0.402112
0.385059
0.365508
0.344274
0.322341
0.300733
0.280374
0.261973
0.245957
0.232462
0.22138
0.212446
0.20532
0.199658
0.195158
0.191573
0.188712
0.186429
0.184609
0.183164
0.182022
0.181124
0.18042
0.179873
0.179449
0.179123
0.178873
0.178683
0.178538
0.178428
0.178346
0.178283
0.178235
0.178198
0.17817
0.178147
0.178128
0.178112
0.178097
0.178084
0.178072
0.178058
0.178055
0.177993
0.210217
0.208644
0.207133
0.205644
0.204041
0.202279
0.200741
0.200041
0.200724
0.20301
0.206888
0.212329
0.217449
0.221828
0.225392
0.228314
0.231084
0.234444
0.239139
0.245649
0.254153
0.26473
0.277413
0.29209
0.308476
0.326174
0.344708
0.363492
0.381825
0.398959
0.414191
0.426963
0.436949
0.44408
0.448516
0.450578
0.45067
0.449233
0.446717
0.44357
0.440224
0.437051
0.434307
0.432091
0.43035
0.428948
0.427755
0.426713
0.425821
0.425057
0.42427
0.423097
0.420974
0.417217
0.411158
0.402282
0.390347
0.375437
0.357972
0.338659
0.318396
0.298155
0.278842
0.261188
0.245664
0.232466
0.22155
0.212699
0.205611
0.199965
0.195471
0.191885
0.189018
0.186724
0.184889
0.183424
0.182259
0.181336
0.180607
0.180034
0.179585
0.179235
0.178962
0.178751
0.178587
0.17846
0.178361
0.178285
0.178224
0.178176
0.178138
0.178106
0.17808
0.178057
0.178036
0.178018
0.178001
0.177984
0.177978
0.177912
0.216636
0.215322
0.214097
0.213
0.212044
0.211223
0.210553
0.210124
0.21015
0.210895
0.212509
0.214902
0.217736
0.220889
0.224378
0.228307
0.23284
0.238175
0.244513
0.252032
0.260866
0.271094
0.282723
0.295673
0.309788
0.324826
0.34044
0.356163
0.37144
0.385682
0.398339
0.408975
0.417335
0.42336
0.427165
0.428991
0.42915
0.427986
0.425861
0.423145
0.420212
0.417401
0.414958
0.412989
0.411451
0.410206
0.409113
0.408108
0.407209
0.406456
0.405792
0.404967
0.403507
0.400779
0.396108
0.388927
0.3789
0.365997
0.350519
0.333059
0.314427
0.295533
0.277263
0.260357
0.24533
0.232435
0.221685
0.212917
0.205866
0.200234
0.195744
0.192159
0.189288
0.186985
0.185138
0.183658
0.182474
0.181529
0.180777
0.180181
0.179709
0.179337
0.179043
0.178812
0.17863
0.178486
0.178372
0.178281
0.178208
0.178149
0.178101
0.178061
0.178026
0.177997
0.17797
0.177947
0.177926
0.177904
0.177895
0.177825
0.220859
0.219762
0.21877
0.217943
0.217322
0.21693
0.216785
0.216915
0.217379
0.218257
0.219628
0.22152
0.223916
0.226801
0.230193
0.234142
0.238729
0.24405
0.250211
0.257307
0.265414
0.274572
0.28478
0.295991
0.308089
0.320876
0.334063
0.347274
0.360067
0.371976
0.382571
0.391513
0.3986
0.403778
0.407126
0.408821
0.409098
0.408226
0.406491
0.404202
0.401679
0.399229
0.397092
0.395381
0.394064
0.393005
0.392049
0.391111
0.390216
0.389443
0.388818
0.388198
0.387213
0.385295
0.381788
0.376087
0.367779
0.356728
0.343118
0.327431
0.310381
0.292813
0.275583
0.259435
0.244918
0.232337
0.221762
0.213081
0.206069
0.200453
0.195968
0.192383
0.189511
0.187204
0.185348
0.183856
0.182658
0.181696
0.180926
0.18031
0.179819
0.179427
0.179114
0.178865
0.178666
0.178506
0.178378
0.178274
0.178189
0.17812
0.178062
0.178013
0.177971
0.177935
0.177903
0.177875
0.177849
0.177823
0.177811
0.177737
0.223573
0.222638
0.221801
0.221122
0.220649
0.220422
0.22047
0.220816
0.221489
0.222527
0.223975
0.225863
0.228203
0.231005
0.234292
0.238098
0.242475
0.247482
0.253184
0.259644
0.266912
0.275015
0.283952
0.293674
0.304078
0.314997
0.326192
0.337359
0.348144
0.358184
0.367141
0.374752
0.380854
0.385394
0.388421
0.390062
0.390492
0.389917
0.388563
0.386684
0.384557
0.382461
0.380627
0.379176
0.37809
0.377237
0.376447
0.375614
0.374748
0.37395
0.373311
0.372787
0.372112
0.370803
0.368238
0.363798
0.357008
0.347639
0.335763
0.321753
0.306227
0.289959
0.273765
0.258387
0.244398
0.232148
0.221763
0.213179
0.20621
0.200612
0.196134
0.192552
0.18968
0.187371
0.185512
0.184013
0.182804
0.18183
0.181046
0.180415
0.179908
0.179499
0.179171
0.178906
0.178692
0.178519
0.178378
0.178262
0.178167
0.178088
0.178021
0.177965
0.177916
0.177874
0.177836
0.177803
0.177773
0.177744
0.177729
0.177651
0.225271
0.224451
0.223721
0.223134
0.222739
0.222577
0.222681
0.223079
0.223792
0.224845
0.226265
0.228078
0.230303
0.232959
0.236065
0.239646
0.243734
0.248368
0.253589
0.259438
0.265948
0.273134
0.280983
0.28945
0.298444
0.307821
0.317385
0.326891
0.336062
0.34461
0.352275
0.358846
0.364189
0.368251
0.371059
0.372699
0.373297
0.37301
0.372017
0.370526
0.368775
0.367018
0.365475
0.364278
0.363424
0.362788
0.362189
0.361495
0.360692
0.359884
0.359206
0.358701
0.358204
0.357324
0.355493
0.352098
0.34662
0.338752
0.328464
0.316025
0.301955
0.286953
0.27179
0.257192
0.24375
0.231853
0.221674
0.2132
0.206282
0.200706
0.196238
0.19266
0.189791
0.187483
0.185623
0.184121
0.182907
0.181925
0.181132
0.18049
0.17997
0.17955
0.179208
0.178931
0.178705
0.178521
0.178369
0.178243
0.178139
0.178051
0.177977
0.177914
0.177859
0.177812
0.17777
0.177732
0.177699
0.177666
0.177649
0.177567
0.22629
0.225547
0.224885
0.224347
0.223978
0.223818
0.223902
0.224261
0.224916
0.225889
0.227201
0.228873
0.230922
0.233366
0.236222
0.239512
0.243258
0.247486
0.252222
0.257492
0.263311
0.269684
0.276593
0.283992
0.2918
0.299897
0.308122
0.31628
0.324151
0.331512
0.338156
0.343914
0.348671
0.352375
0.355033
0.3567
0.357467
0.35745
0.356789
0.355656
0.354254
0.352813
0.351547
0.350593
0.349965
0.349547
0.349154
0.348627
0.347922
0.347131
0.346415
0.345881
0.345463
0.344861
0.343578
0.341023
0.336655
0.330102
0.321248
0.310262
0.297571
0.283793
0.269647
0.255838
0.242962
0.231441
0.22149
0.21314
0.206284
0.200736
0.196279
0.192707
0.189842
0.187537
0.185679
0.184177
0.182962
0.181977
0.181178
0.180529
0.180002
0.179573
0.179222
0.178936
0.178701
0.178508
0.178347
0.178214
0.178102
0.178008
0.177928
0.177859
0.177799
0.177747
0.177701
0.17766
0.177624
0.177588
0.177569
0.177484
0.226863
0.226169
0.225546
0.22503
0.224658
0.224469
0.224496
0.22477
0.225315
0.226154
0.227305
0.228787
0.230615
0.232805
0.235373
0.238336
0.241711
0.245515
0.249766
0.254477
0.259655
0.265295
0.271374
0.27785
0.284651
0.291677
0.298798
0.305857
0.312681
0.319093
0.324925
0.330039
0.334337
0.337765
0.340316
0.342021
0.342944
0.34317
0.342807
0.341997
0.340913
0.339764
0.338754
0.338027
0.337613
0.337409
0.337228
0.336889
0.336314
0.335572
0.334831
0.334248
0.333839
0.333397
0.332501
0.330601
0.327148
0.321729
0.314151
0.304494
0.293094
0.280489
0.267341
0.254323
0.242032
0.230908
0.221206
0.212998
0.206216
0.200702
0.19626
0.192696
0.189836
0.187536
0.185681
0.184182
0.182968
0.181983
0.181182
0.18053
0.179999
0.179565
0.179209
0.178916
0.178675
0.178476
0.178309
0.17817
0.178053
0.177954
0.177869
0.177796
0.177732
0.177677
0.177628
0.177584
0.177545
0.177508
0.177486
0.177399
0.227161
0.226493
0.225888
0.225374
0.224983
0.224748
0.224701
0.22487
0.225282
0.225959
0.226921
0.228186
0.229769
0.231683
0.233944
0.236565
0.239558
0.242937
0.246711
0.250888
0.255467
0.26044
0.265782
0.271454
0.277395
0.28352
0.289724
0.295881
0.301853
0.307494
0.312671
0.317267
0.321193
0.324398
0.326864
0.328605
0.329663
0.330098
0.329997
0.329471
0.328672
0.327787
0.32701
0.32649
0.326274
0.326274
0.326303
0.326164
0.325745
0.325083
0.324341
0.323708
0.323267
0.322897
0.322257
0.320848
0.318134
0.313673
0.307214
0.298757
0.288553
0.277063
0.264884
0.252656
0.240962
0.230256
0.220825
0.212777
0.20608
0.200608
0.196186
0.192632
0.189777
0.187482
0.185632
0.184137
0.182927
0.181944
0.181144
0.180492
0.17996
0.179524
0.179165
0.17887
0.178625
0.178421
0.178252
0.178109
0.177988
0.177885
0.177797
0.177721
0.177655
0.177597
0.177546
0.1775
0.17746
0.177421
0.177398
0.177309
0.227298
0.226642
0.226041
0.225518
0.225098
0.224812
0.224686
0.224747
0.225021
0.225531
0.226296
0.227335
0.228663
0.230295
0.232243
0.234519
0.237133
0.240095
0.24341
0.247082
0.251108
0.255475
0.260161
0.26513
0.27033
0.275691
0.281126
0.286533
0.291798
0.296804
0.301439
0.305602
0.309217
0.31223
0.314618
0.316383
0.317549
0.31816
0.31828
0.318
0.317451
0.3168
0.316232
0.315899
0.315862
0.31605
0.316283
0.316347
0.316101
0.315548
0.314833
0.31416
0.313667
0.313308
0.312822
0.311768
0.309635
0.30597
0.300478
0.293092
0.283985
0.273542
0.262298
0.250848
0.239759
0.22949
0.220349
0.212479
0.205882
0.200462
0.196064
0.192521
0.189673
0.187383
0.185538
0.184048
0.182842
0.181863
0.181067
0.180417
0.179886
0.17945
0.179091
0.178795
0.178549
0.178344
0.178172
0.178028
0.177905
0.177801
0.177711
0.177633
0.177565
0.177506
0.177453
0.177406
0.177365
0.177325
0.177301
0.177211
0.227351
0.226697
0.226091
0.225551
0.2251
0.224761
0.224559
0.224517
0.22466
0.22501
0.225585
0.226405
0.227486
0.228842
0.230485
0.232426
0.234674
0.237237
0.240118
0.243319
0.246835
0.250654
0.254755
0.259106
0.263663
0.268368
0.273148
0.277919
0.282587
0.287056
0.291229
0.29502
0.298361
0.301199
0.303508
0.305279
0.306526
0.307276
0.307579
0.307508
0.307173
0.306727
0.306343
0.306176
0.306298
0.306657
0.30708
0.307345
0.307283
0.30686
0.306197
0.305504
0.304954
0.304569
0.304161
0.303351
0.301666
0.298651
0.293982
0.28754
0.279427
0.269959
0.259607
0.248919
0.238436
0.228616
0.219784
0.21211
0.205627
0.200268
0.1959
0.192372
0.189532
0.187247
0.185407
0.183922
0.18272
0.181746
0.180954
0.180308
0.179779
0.179346
0.178989
0.178693
0.178448
0.178244
0.178072
0.177927
0.177804
0.177699
0.177608
0.17753
0.177462
0.177402
0.177348
0.177301
0.177259
0.177218
0.177194
0.177104
0.227362
0.226705
0.22609
0.225531
0.225047
0.224658
0.224386
0.224251
0.224274
0.224478
0.224879
0.225497
0.226348
0.227444
0.228801
0.230427
0.232331
0.234521
0.236999
0.239766
0.242817
0.246141
0.249719
0.253524
0.257517
0.261651
0.265864
0.270086
0.274239
0.27824
0.282009
0.28547
0.28856
0.291232
0.293454
0.295212
0.296511
0.297367
0.297817
0.297918
0.297766
0.297495
0.297271
0.297248
0.29751
0.29802
0.298618
0.299077
0.299202
0.298925
0.298338
0.297644
0.297043
0.296612
0.296229
0.295578
0.294227
0.291734
0.287759
0.282138
0.274919
0.26635
0.25684
0.246889
0.237008
0.227647
0.219138
0.211676
0.205322
0.200033
0.195703
0.192192
0.189361
0.187082
0.185247
0.183766
0.18257
0.1816
0.180812
0.18017
0.179646
0.179216
0.178862
0.178569
0.178326
0.178123
0.177952
0.177808
0.177686
0.177581
0.177491
0.177413
0.177345
0.177285
0.177232
0.177184
0.177142
0.177102
0.177077
0.176987
0.227354
0.226691
0.226064
0.225486
0.224972
0.224538
0.224202
0.223984
0.223902
0.223976
0.224222
0.224659
0.225301
0.226164
0.227258
0.228596
0.230185
0.232033
0.234143
0.236514
0.239144
0.242021
0.245131
0.24845
0.251946
0.255576
0.259291
0.26303
0.266729
0.270316
0.273723
0.276883
0.279739
0.282247
0.284373
0.2861
0.287425
0.288356
0.288919
0.28916
0.289159
0.289037
0.28895
0.28905
0.289431
0.290074
0.29083
0.291472
0.291782
0.291661
0.291167
0.290492
0.289852
0.289367
0.288974
0.288418
0.287311
0.285231
0.281833
0.276922
0.270496
0.262747
0.254026
0.244782
0.235493
0.226593
0.21842
0.211184
0.204972
0.199765
0.195478
0.19199
0.18917
0.186897
0.185066
0.18359
0.182398
0.181433
0.18065
0.180012
0.179492
0.179066
0.178716
0.178426
0.178186
0.177985
0.177817
0.177675
0.177554
0.177451
0.177362
0.177284
0.177217
0.177158
0.177105
0.177058
0.177016
0.176976
0.176952
0.176862
0.227338
0.226668
0.226029
0.225432
0.224889
0.224414
0.224024
0.223733
0.22356
0.22352
0.223631
0.223908
0.224367
0.22502
0.225881
0.226959
0.228265
0.229804
0.231581
0.233596
0.235846
0.238324
0.241015
0.2439
0.246952
0.250135
0.253407
0.256717
0.260009
0.263224
0.266301
0.269182
0.271816
0.27416
0.276182
0.277862
0.27919
0.280169
0.280816
0.281166
0.281288
0.281291
0.281318
0.281522
0.282005
0.282761
0.283658
0.284468
0.284958
0.284997
0.284611
0.283974
0.283308
0.282768
0.282344
0.281836
0.280901
0.279145
0.276222
0.271917
0.266191
0.259185
0.251194
0.242621
0.233907
0.225468
0.217638
0.210641
0.204582
0.199468
0.195232
0.191771
0.188965
0.1867
0.184874
0.183401
0.182213
0.181252
0.180473
0.179841
0.179325
0.178903
0.178557
0.178271
0.178034
0.177836
0.177671
0.177531
0.177412
0.177311
0.177223
0.177147
0.177081
0.177023
0.176971
0.176925
0.176883
0.176844
0.17682
0.176731
0.227316
0.226639
0.225988
0.225373
0.224805
0.224295
0.223856
0.223503
0.223251
0.223113
0.223107
0.223245
0.223543
0.224013
0.224667
0.225516
0.22657
0.227833
0.229313
0.231008
0.232919
0.235038
0.237355
0.239853
0.242508
0.245291
0.248167
0.251091
0.254017
0.256893
0.259667
0.262288
0.264709
0.266891
0.268802
0.270419
0.271731
0.272735
0.27344
0.273874
0.274095
0.274198
0.274321
0.274611
0.275177
0.276029
0.277049
0.278012
0.278674
0.278874
0.278606
0.27802
0.277343
0.276753
0.276286
0.275794
0.274977
0.273469
0.270934
0.267145
0.262031
0.255691
0.248373
0.240431
0.232272
0.224286
0.216803
0.210054
0.204159
0.199147
0.194971
0.191542
0.188752
0.186496
0.184675
0.183207
0.182022
0.181065
0.180291
0.179662
0.179151
0.178733
0.178391
0.178109
0.177875
0.177681
0.177519
0.177382
0.177265
0.177166
0.17708
0.177006
0.176941
0.176884
0.176834
0.176788
0.176748
0.176709
0.176686
0.176597
0.227292
0.226607
0.225945
0.225314
0.224722
0.224181
0.223701
0.223294
0.222973
0.222751
0.222643
0.222661
0.22282
0.22313
0.223603
0.224251
0.225081
0.226102
0.227317
0.228729
0.230337
0.232136
0.234118
0.236269
0.23857
0.240995
0.243514
0.246091
0.248685
0.251252
0.253746
0.256123
0.25834
0.260361
0.262156
0.2637
0.26498
0.265989
0.26673
0.267226
0.267522
0.267707
0.267906
0.268266
0.2689
0.269831
0.270957
0.272059
0.272882
0.27324
0.273096
0.272576
0.271899
0.271267
0.270752
0.270253
0.269512
0.268194
0.265974
0.262619
0.258038
0.252292
0.245587
0.238235
0.230604
0.223061
0.215925
0.209429
0.203708
0.198807
0.194697
0.191305
0.188537
0.186291
0.184477
0.183013
0.181832
0.180878
0.180108
0.179483
0.178976
0.178562
0.178224
0.177946
0.177716
0.177525
0.177366
0.177231
0.177118
0.177021
0.176937
0.176865
0.176802
0.176746
0.176697
0.176652
0.176613
0.176575
0.176552
0.176464
0.227265
0.226572
0.225899
0.225254
0.224642
0.224073
0.223556
0.223102
0.222722
0.222429
0.222233
0.222148
0.222185
0.222356
0.222673
0.223144
0.223779
0.224584
0.225565
0.226726
0.228065
0.22958
0.231263
0.233105
0.235088
0.237191
0.23939
0.241653
0.243945
0.246229
0.248464
0.250612
0.252635
0.254499
0.256174
0.257637
0.258873
0.25987
0.26063
0.261167
0.261521
0.261769
0.262029
0.262443
0.26313
0.264126
0.265342
0.266567
0.26754
0.268052
0.268035
0.26759
0.266927
0.266261
0.265698
0.265177
0.264481
0.263304
0.261338
0.258349
0.254229
0.24901
0.242861