/*--------------------------------*- C++ -*----------------------------------*\
| =========                 |                                                 |
| \\      /  F ield         | OpenFOAM: The Open Source CFD Toolbox           |
|  \\    /   O peration     | Version:  2.1.1                                 |
|   \\  /    A nd           | Web:      www.OpenFOAM.org                      |
|    \\/     M anipulation  |                                                 |
\*---------------------------------------------------------------------------*/
FoamFile
{
    version     2.0;
    format      ascii;
    class       volScalarField;
    location    "0.035";
    object      nut;
}
// * * * * * * * * * * * * * * * * * * * * * * * * * * * * * * * * * * * * * //

dimensions      [0 2 -1 0 0 0 0];

internalField   nonuniform List<scalar> 
6820
(
4.96025e-05
5.47044e-05
5.94496e-05
6.37668e-05
6.7617e-05
7.09788e-05
7.38507e-05
7.62507e-05
7.82113e-05
7.97744e-05
8.09866e-05
8.18957e-05
8.2548e-05
8.29865e-05
8.32499e-05
8.33722e-05
8.33828e-05
8.33064e-05
8.31638e-05
8.2972e-05
8.27449e-05
8.24936e-05
8.2227e-05
8.19518e-05
8.16733e-05
8.13952e-05
8.112e-05
8.08498e-05
8.05819e-05
8.03313e-05
8.0021e-05
8.00105e-05
7.85354e-05
0.000540292
0.000304995
0.000220001
0.000171613
0.000140586
0.000119732
0.000105212
9.4832e-05
8.72691e-05
8.1687e-05
7.75354e-05
7.44407e-05
7.2142e-05
7.0453e-05
6.92381e-05
6.83965e-05
6.78525e-05
6.75478e-05
6.74373e-05
6.74852e-05
6.76629e-05
6.79472e-05
6.83187e-05
6.87613e-05
6.9261e-05
6.98055e-05
7.0384e-05
7.09855e-05
7.16014e-05
7.22163e-05
7.28272e-05
7.34079e-05
7.38584e-05
0.00105858
0.000836069
0.000679208
0.000569578
0.000490012
0.000430073
0.000383659
0.000346818
0.000316927
0.000292225
0.000271498
0.000253884
0.000238755
0.000225645
0.000214197
0.000204134
0.00019524
0.000187341
0.000180294
0.000173986
0.00016832
0.000163216
0.000158607
0.000154436
0.000150654
0.000147219
0.000144094
0.000141247
0.00013865
0.000136283
0.000134091
0.000132164
0.000130026
0.00115953
0.00109652
0.00101164
0.00092637
0.000849741
0.000783524
0.000726939
0.000678574
0.000637016
0.000601042
0.000569652
0.000542044
0.00051758
0.000495754
0.000476158
0.000458467
0.000442415
0.000427787
0.000414402
0.000402112
0.000390792
0.000380335
0.000370653
0.000361667
0.000353313
0.000345535
0.000338286
0.000331529
0.000325235
0.000319386
0.000313986
0.000309035
0.000304649
0.00116966
0.00115863
0.00113362
0.00109756
0.00105567
0.00101218
0.000969651
0.00092939
0.000891946
0.000857442
0.000825788
0.000796796
0.000770237
0.000745882
0.00072351
0.000702917
0.000683923
0.000666363
0.000650094
0.000634987
0.000620931
0.000607824
0.000595576
0.00058411
0.000573351
0.000563238
0.00055371
0.000544716
0.000536207
0.000528141
0.000520485
0.000513205
0.000506309
0.00117006
0.00116839
0.00116305
0.0011526
0.00113713
0.00111768
0.00109555
0.00107194
0.00104776
0.00102367
0.0010001
0.000977326
0.0009555
0.000934703
0.000914962
0.000896272
0.000878603
0.000861916
0.00084616
0.000831285
0.000817236
0.000803961
0.000791406
0.00077952
0.000768254
0.000757559
0.000747387
0.000737693
0.000728429
0.000719551
0.000711012
0.000702771
0.000694783
0.00116996
0.00116938
0.00116821
0.00116569
0.00116123
0.00115459
0.00114585
0.0011353
0.00112332
0.00111031
0.00109659
0.00108249
0.00106822
0.00105399
0.00103992
0.00102612
0.00101266
0.00099959
0.000986947
0.000974746
0.000962993
0.000951688
0.000940823
0.000930387
0.000920363
0.000910731
0.00090147
0.000892555
0.000883959
0.000875654
0.00086761
0.000859798
0.000852191
0.00116994
0.0011694
0.00116883
0.00116802
0.00116674
0.00116472
0.00116181
0.00115792
0.00115307
0.00114733
0.00114081
0.00113364
0.00112596
0.00111789
0.00110954
0.00110101
0.00109239
0.00108375
0.00107514
0.00106662
0.00105821
0.00104995
0.00104185
0.00103394
0.00102621
0.00101867
0.00101133
0.00100418
0.000997217
0.000990425
0.000983799
0.000977328
0.000971007
0.00116994
0.00116939
0.00116886
0.00116832
0.0011677
0.00116692
0.00116589
0.0011645
0.0011627
0.00116046
0.00115775
0.00115461
0.00115105
0.00114713
0.00114288
0.00113835
0.0011336
0.00112866
0.00112359
0.00111843
0.0011132
0.00110793
0.00110266
0.0010974
0.00109217
0.00108698
0.00108185
0.00107678
0.00107179
0.00106687
0.00106203
0.00105727
0.0010526
0.00116994
0.00116938
0.00116885
0.00116833
0.00116782
0.00116729
0.00116671
0.00116605
0.00116527
0.00116433
0.00116321
0.00116189
0.00116035
0.00115859
0.00115663
0.00115447
0.00115213
0.00114962
0.00114696
0.00114418
0.00114128
0.0011383
0.00113524
0.00113213
0.00112898
0.00112579
0.00112259
0.00111939
0.00111619
0.001113
0.00110983
0.0011067
0.00110362
0.00116994
0.00116938
0.00116884
0.00116832
0.00116782
0.00116732
0.00116684
0.00116634
0.00116583
0.00116528
0.00116468
0.00116402
0.00116327
0.00116244
0.00116152
0.0011605
0.00115937
0.00115816
0.00115684
0.00115544
0.00115396
0.0011524
0.00115077
0.00114908
0.00114734
0.00114556
0.00114374
0.0011419
0.00114004
0.00113816
0.00113629
0.00113443
0.0011326
0.00116994
0.00116938
0.00116884
0.00116832
0.00116781
0.00116732
0.00116684
0.00116638
0.00116592
0.00116546
0.001165
0.00116454
0.00116405
0.00116354
0.00116301
0.00116244
0.00116183
0.00116119
0.0011605
0.00115977
0.00115899
0.00115818
0.00115733
0.00115644
0.00115551
0.00115456
0.00115358
0.00115258
0.00115156
0.00115054
0.00114952
0.0011485
0.00114751
0.00116994
0.00116938
0.00116884
0.00116832
0.00116781
0.00116732
0.00116684
0.00116637
0.00116592
0.00116548
0.00116505
0.00116463
0.00116422
0.0011638
0.00116339
0.00116297
0.00116255
0.00116211
0.00116167
0.00116122
0.00116075
0.00116027
0.00115977
0.00115926
0.00115874
0.00115821
0.00115767
0.00115712
0.00115656
0.00115601
0.00115547
0.00115494
0.00115444
0.00116994
0.00116938
0.00116884
0.00116832
0.00116781
0.00116731
0.00116683
0.00116637
0.00116592
0.00116548
0.00116505
0.00116464
0.00116424
0.00116385
0.00116346
0.00116309
0.00116272
0.00116235
0.00116199
0.00116163
0.00116128
0.00116092
0.00116057
0.00116022
0.00115987
0.00115952
0.00115917
0.00115883
0.0011585
0.00115818
0.00115787
0.00115759
0.00115733
0.00116994
0.00116938
0.00116884
0.00116831
0.00116781
0.00116731
0.00116683
0.00116637
0.00116591
0.00116547
0.00116505
0.00116464
0.00116423
0.00116385
0.00116347
0.0011631
0.00116274
0.0011624
0.00116206
0.00116173
0.00116141
0.0011611
0.00116079
0.0011605
0.00116021
0.00115993
0.00115966
0.00115941
0.00115917
0.00115894
0.00115874
0.00115856
0.00115841
0.00116994
0.00116938
0.00116884
0.00116831
0.0011678
0.00116731
0.00116683
0.00116636
0.00116591
0.00116547
0.00116504
0.00116463
0.00116423
0.00116384
0.00116346
0.00116309
0.00116274
0.0011624
0.00116206
0.00116174
0.00116143
0.00116113
0.00116084
0.00116056
0.00116029
0.00116004
0.0011598
0.00115957
0.00115936
0.00115917
0.00115901
0.00115887
0.00115876
0.00116994
0.00116938
0.00116884
0.00116831
0.0011678
0.00116731
0.00116683
0.00116636
0.00116591
0.00116547
0.00116504
0.00116462
0.00116422
0.00116383
0.00116345
0.00116309
0.00116273
0.00116239
0.00116205
0.00116173
0.00116142
0.00116113
0.00116084
0.00116056
0.0011603
0.00116005
0.00115982
0.0011596
0.0011594
0.00115922
0.00115907
0.00115894
0.00115884
0.00116994
0.00116938
0.00116884
0.00116831
0.0011678
0.00116731
0.00116682
0.00116636
0.0011659
0.00116546
0.00116503
0.00116462
0.00116422
0.00116382
0.00116345
0.00116308
0.00116272
0.00116238
0.00116204
0.00116172
0.00116141
0.00116111
0.00116083
0.00116055
0.00116029
0.00116005
0.00115981
0.0011596
0.0011594
0.00115922
0.00115907
0.00115894
0.00115884
0.00116994
0.00116938
0.00116884
0.00116831
0.0011678
0.00116731
0.00116682
0.00116636
0.0011659
0.00116546
0.00116503
0.00116461
0.00116421
0.00116382
0.00116344
0.00116307
0.00116271
0.00116237
0.00116203
0.00116171
0.0011614
0.0011611
0.00116081
0.00116054
0.00116028
0.00116003
0.0011598
0.00115958
0.00115938
0.0011592
0.00115904
0.00115891
0.0011588
0.00116994
0.00116938
0.00116884
0.00116831
0.0011678
0.0011673
0.00116682
0.00116635
0.0011659
0.00116546
0.00116503
0.00116461
0.00116421
0.00116381
0.00116343
0.00116306
0.0011627
0.00116236
0.00116202
0.0011617
0.00116139
0.00116109
0.0011608
0.00116052
0.00116026
0.00116001
0.00115978
0.00115956
0.00115936
0.00115917
0.00115901
0.00115887
0.00115876
0.00116994
0.00116938
0.00116884
0.00116831
0.0011678
0.0011673
0.00116682
0.00116635
0.0011659
0.00116545
0.00116502
0.00116461
0.0011642
0.00116381
0.00116343
0.00116306
0.0011627
0.00116235
0.00116201
0.00116169
0.00116138
0.00116107
0.00116078
0.00116051
0.00116024
0.00115999
0.00115976
0.00115953
0.00115933
0.00115914
0.00115897
0.00115883
0.00115871
0.00116994
0.00116938
0.00116884
0.00116831
0.0011678
0.0011673
0.00116682
0.00116635
0.00116589
0.00116545
0.00116502
0.0011646
0.0011642
0.0011638
0.00116342
0.00116305
0.00116269
0.00116234
0.001162
0.00116168
0.00116136
0.00116106
0.00116077
0.00116049
0.00116022
0.00115997
0.00115973
0.00115951
0.0011593
0.00115911
0.00115894
0.00115878
0.00115865
0.00116994
0.00116938
0.00116884
0.00116831
0.0011678
0.0011673
0.00116682
0.00116635
0.00116589
0.00116545
0.00116502
0.0011646
0.00116419
0.0011638
0.00116342
0.00116304
0.00116268
0.00116233
0.00116199
0.00116167
0.00116135
0.00116105
0.00116075
0.00116047
0.00116021
0.00115995
0.00115971
0.00115948
0.00115927
0.00115907
0.00115889
0.00115873
0.0011586
0.00116994
0.00116938
0.00116884
0.00116831
0.0011678
0.0011673
0.00116682
0.00116635
0.00116589
0.00116545
0.00116502
0.0011646
0.00116419
0.00116379
0.00116341
0.00116304
0.00116268
0.00116233
0.00116199
0.00116166
0.00116134
0.00116103
0.00116074
0.00116046
0.00116019
0.00115993
0.00115968
0.00115945
0.00115924
0.00115904
0.00115885
0.00115869
0.00115854
0.00116994
0.00116938
0.00116884
0.00116831
0.0011678
0.0011673
0.00116682
0.00116635
0.00116589
0.00116545
0.00116501
0.00116459
0.00116419
0.00116379
0.00116341
0.00116303
0.00116267
0.00116232
0.00116198
0.00116165
0.00116133
0.00116102
0.00116072
0.00116044
0.00116017
0.00115991
0.00115966
0.00115942
0.0011592
0.001159
0.00115881
0.00115864
0.00115848
0.00116994
0.00116938
0.00116884
0.00116831
0.0011678
0.0011673
0.00116682
0.00116635
0.00116589
0.00116545
0.00116501
0.00116459
0.00116418
0.00116379
0.0011634
0.00116303
0.00116266
0.00116231
0.00116197
0.00116164
0.00116132
0.00116101
0.00116071
0.00116042
0.00116015
0.00115988
0.00115963
0.00115939
0.00115917
0.00115896
0.00115876
0.00115859
0.00115842
0.00116994
0.00116938
0.00116884
0.00116831
0.0011678
0.0011673
0.00116682
0.00116635
0.00116589
0.00116544
0.00116501
0.00116459
0.00116418
0.00116378
0.0011634
0.00116302
0.00116266
0.0011623
0.00116196
0.00116163
0.00116131
0.00116099
0.00116069
0.00116041
0.00116013
0.00115986
0.00115961
0.00115937
0.00115914
0.00115892
0.00115872
0.00115854
0.00115837
0.00116994
0.00116938
0.00116884
0.00116831
0.0011678
0.0011673
0.00116682
0.00116635
0.00116589
0.00116544
0.00116501
0.00116459
0.00116418
0.00116378
0.00116339
0.00116302
0.00116265
0.0011623
0.00116195
0.00116162
0.0011613
0.00116098
0.00116068
0.00116039
0.00116011
0.00115984
0.00115958
0.00115934
0.00115911
0.00115889
0.00115868
0.00115849
0.00115831
0.00116994
0.00116938
0.00116884
0.00116831
0.0011678
0.0011673
0.00116682
0.00116635
0.00116589
0.00116544
0.00116501
0.00116459
0.00116418
0.00116378
0.00116339
0.00116301
0.00116265
0.00116229
0.00116195
0.00116161
0.00116129
0.00116097
0.00116067
0.00116037
0.00116009
0.00115982
0.00115956
0.00115931
0.00115908
0.00115885
0.00115864
0.00115845
0.00115827
0.00116994
0.00116938
0.00116884
0.00116831
0.0011678
0.0011673
0.00116682
0.00116635
0.00116589
0.00116544
0.00116501
0.00116459
0.00116418
0.00116378
0.00116339
0.00116301
0.00116265
0.00116229
0.00116194
0.00116161
0.00116128
0.00116096
0.00116066
0.00116036
0.00116008
0.0011598
0.00115954
0.00115929
0.00115905
0.00115882
0.00115861
0.00115841
0.00115822
0.00116994
0.00116938
0.00116884
0.00116831
0.0011678
0.0011673
0.00116682
0.00116635
0.00116589
0.00116544
0.00116501
0.00116459
0.00116418
0.00116378
0.00116339
0.00116301
0.00116264
0.00116229
0.00116194
0.0011616
0.00116127
0.00116096
0.00116065
0.00116035
0.00116007
0.00115979
0.00115952
0.00115927
0.00115903
0.00115879
0.00115857
0.00115837
0.00115817
0.00116994
0.00116938
0.00116884
0.00116831
0.0011678
0.00116731
0.00116682
0.00116635
0.0011659
0.00116545
0.00116502
0.0011646
0.00116419
0.00116379
0.0011634
0.00116302
0.00116265
0.00116229
0.00116194
0.0011616
0.00116127
0.00116095
0.00116064
0.00116034
0.00116005
0.00115976
0.00115949
0.00115923
0.00115898
0.00115874
0.00115851
0.00115829
0.00115808
0.00116994
0.00116938
0.00116884
0.00116832
0.00116781
0.00116731
0.00116683
0.00116636
0.0011659
0.00116546
0.00116503
0.0011646
0.00116419
0.00116379
0.0011634
0.00116302
0.00116264
0.00116227
0.00116192
0.00116157
0.00116122
0.00116089
0.00116056
0.00116024
0.00115992
0.00115962
0.00115932
0.00115902
0.00115874
0.00115846
0.0011582
0.00115794
0.00115769
0.00116994
0.00116938
0.00116884
0.00116833
0.00116782
0.00116733
0.00116685
0.00116639
0.00116593
0.00116548
0.00116504
0.0011646
0.00116417
0.00116374
0.00116332
0.0011629
0.00116248
0.00116206
0.00116164
0.00116122
0.00116081
0.00116039
0.00115997
0.00115955
0.00115912
0.0011587
0.00115828
0.00115785
0.00115743
0.00115701
0.00115658
0.00115616
0.00115575
0.00116994
0.00116939
0.00116886
0.00116835
0.00116784
0.00116734
0.00116684
0.00116633
0.00116582
0.00116529
0.00116475
0.00116419
0.00116361
0.001163
0.00116237
0.00116172
0.00116103
0.00116032
0.00115958
0.00115882
0.00115803
0.00115721
0.00115638
0.00115552
0.00115464
0.00115374
0.00115283
0.0011519
0.00115096
0.00115001
0.00114906
0.00114809
0.00114712
0.00116995
0.0011694
0.00116886
0.00116829
0.00116766
0.00116695
0.00116614
0.00116522
0.00116418
0.001163
0.0011617
0.00116028
0.00115872
0.00115705
0.00115527
0.00115339
0.00115141
0.00114934
0.0011472
0.001145
0.00114274
0.00114043
0.00113808
0.0011357
0.00113329
0.00113087
0.00112844
0.00112601
0.00112358
0.00112116
0.00111876
0.00111637
0.00111401
0.00116996
0.00116917
0.00116787
0.00116597
0.00116348
0.00116038
0.00115669
0.00115245
0.00114771
0.00114254
0.001137
0.00113115
0.00112505
0.00111876
0.00111234
0.00110583
0.00109927
0.00109269
0.00108614
0.00107963
0.00107318
0.00106683
0.00106058
0.00105444
0.00104844
0.00104257
0.00103686
0.00103129
0.00102589
0.00102064
0.00101556
0.00101065
0.0010059
0.00116832
0.00115865
0.00114506
0.00112858
0.00110992
0.0010898
0.00106886
0.00104761
0.00102645
0.00100563
0.00098535
0.000965722
0.000946821
0.000928682
0.000911319
0.000894726
0.000878888
0.00086378
0.000849374
0.000835638
0.000822538
0.000810042
0.000798116
0.000786727
0.000775842
0.000765433
0.000755467
0.000745918
0.000736757
0.000727958
0.000719496
0.000711347
0.000703488
0.00107566
0.000936179
0.00083555
0.000756621
0.000691599
0.000637619
0.000592478
0.000554345
0.00052178
0.000493677
0.000469187
0.000447658
0.000428581
0.00041156
0.000396276
0.000382477
0.000369956
0.000358544
0.0003481
0.000338508
0.000329667
0.000321496
0.000313922
0.000306883
0.000300328
0.00029421
0.000288488
0.000283129
0.000278101
0.000273378
0.000268936
0.000264754
0.000260812
0.000142979
0.000146644
0.000150175
0.000153551
0.000156773
0.000159846
0.000162775
0.000165566
0.000168223
0.000170751
0.000173156
0.000175441
0.000177613
0.000179675
0.000181632
0.000183488
0.000185248
0.000186916
0.000188496
0.000189991
0.000191406
0.000192745
0.00019401
0.000195205
0.000196333
0.000197397
0.0001984
0.000199345
0.000200235
0.000201071
0.000201857
0.000202594
0.000203286
9.08392e-05
0.000115865
0.00015781
0.000218293
0.000290825
0.000365755
0.000439046
0.000512897
0.000590133
0.000669785
0.000747188
0.000816815
0.000873963
0.000915212
0.000939544
0.00094641
0.000934992
0.000903983
0.000851706
0.000776692
0.000679316
0.000565292
0.000451612
0.000373852
0.000398843
0.000628512
0.000978453
0.00121277
0.00137281
0.00151444
0.00164379
0.00175633
0.00184916
0.00192223
0.00197746
0.00201781
0.00204655
0.00206692
0.00208205
0.00209474
0.00210724
0.00212087
0.00213593
0.00215183
0.00216768
0.00218275
0.00219656
0.00220857
0.00221761
0.00222168
0.00221811
0.00220422
0.00217796
0.00213835
0.00208563
0.00202112
0.00194703
0.00186621
0.00178193
0.00169759
0.00161636
0.00154085
0.00147285
0.00141323
0.00136207
0.00131897
0.00128324
0.00125409
0.00123064
0.00121198
0.00119723
0.00118562
0.0011765
0.00116936
0.0011638
0.00115948
0.00115616
0.00115362
0.0011517
0.00115025
0.00114918
0.0011484
0.00114783
0.00114743
0.00114716
0.00114699
0.00114688
0.00114682
0.0011468
0.0011468
0.00114682
0.00114685
0.00114688
0.00114692
0.00114695
0.00114698
0.00114701
0.00114704
0.00114706
0.00114708
7.4997e-05
7.6917e-05
8.07731e-05
9.16297e-05
0.000115856
0.000156646
0.000212478
0.000278132
0.000347083
0.000413882
0.000475068
0.000528728
0.000572503
0.000605248
0.000625579
0.00063147
0.000620787
0.000591944
0.000544719
0.000481714
0.000410911
0.00034933
0.00032926
0.000410003
0.000645217
0.000919579
0.00111492
0.00126801
0.00140819
0.00153785
0.00165304
0.00175083
0.00183041
0.00189267
0.00193964
0.00197392
0.00199828
0.00201547
0.00202813
0.00203872
0.00204926
0.00206103
0.00207429
0.0020885
0.00210276
0.00211638
0.00212905
0.00214051
0.00214996
0.00215571
0.00215521
0.00214569
0.00212481
0.00209124
0.00204486
0.00198664
0.00191855
0.00184323
0.0017638
0.00168359
0.00160577
0.00153301
0.00146721
0.00140937
0.00135966
0.0013177
0.00128282
0.00125424
0.00123112
0.00121262
0.00119793
0.00118632
0.00117718
0.00117001
0.00116441
0.00116006
0.0011567
0.00115412
0.00115216
0.00115067
0.00114956
0.00114874
0.00114815
0.00114772
0.00114743
0.00114723
0.0011471
0.00114702
0.00114698
0.00114696
0.00114697
0.00114698
0.001147
0.00114703
0.00114705
0.00114708
0.0011471
0.00114712
0.00114714
0.00114715
0.000127951
0.000127266
0.000128505
0.000126855
0.000115542
0.000102194
0.000100111
0.000112515
0.00013753
0.000171854
0.000211406
0.000251539
0.000288455
0.000318074
0.000337185
0.000344111
0.000338789
0.000323073
0.00030171
0.000284408
0.000289784
0.000351416
0.00050664
0.00072048
0.000904919
0.00105517
0.00119385
0.00132631
0.00145003
0.00156183
0.00165941
0.00174159
0.00180831
0.00186058
0.00190012
0.00192907
0.00194967
0.00196419
0.00197483
0.00198371
0.00199267
0.00200287
0.00201463
0.00202741
0.0020403
0.00205259
0.00206405
0.00207469
0.00208411
0.002091
0.00209308
0.00208755
0.00207186
0.00204431
0.00200438
0.00195268
0.00189085
0.0018213
0.00174695
0.00167104
0.0015967
0.00152667
0.00146298
0.00140675
0.00135828
0.00131727
0.00128307
0.00125492
0.00123203
0.00121361
0.00119892
0.00118726
0.00117806
0.00117082
0.00116515
0.00116073
0.0011573
0.00115466
0.00115263
0.0011511
0.00114994
0.00114907
0.00114844
0.00114797
0.00114764
0.00114741
0.00114725
0.00114715
0.00114709
0.00114706
0.00114704
0.00114704
0.00114705
0.00114706
0.00114708
0.0011471
0.00114711
0.00114713
0.00114714
0.00114714
0.000300014
0.000296569
0.00029964
0.000319022
0.000368319
0.000434974
0.00042773
0.000330358
0.000241199
0.000192151
0.000172088
0.000169468
0.000175416
0.000186201
0.000199879
0.000216085
0.000236913
0.000268261
0.000320833
0.000406961
0.000527133
0.000660268
0.000787254
0.000909541
0.00103198
0.00115366
0.00127164
0.00138329
0.00148636
0.0015789
0.00165948
0.00172736
0.00178265
0.00182617
0.00185929
0.0018837
0.00190117
0.00191353
0.00192258
0.00193014
0.00193784
0.00194681
0.00195735
0.00196897
0.00198072
0.00199185
0.00200215
0.00201179
0.00202078
0.00202825
0.00203228
0.00203018
0.00201924
0.00199746
0.00196388
0.00191873
0.0018633
0.00179968
0.00173062
0.00165917
0.00158844
0.0015212
0.0014596
0.0014049
0.00135755
0.00131735
0.00128372
0.00125592
0.0012332
0.00121483
0.0012001
0.00118837
0.00117907
0.00117174
0.00116597
0.00116146
0.00115795
0.00115523
0.00115313
0.00115153
0.00115031
0.00114939
0.0011487
0.0011482
0.00114783
0.00114756
0.00114737
0.00114725
0.00114716
0.0011471
0.00114707
0.00114705
0.00114705
0.00114705
0.00114705
0.00114706
0.00114707
0.00114708
0.00114708
0.00114707
0.000498709
0.000490486
0.000483431
0.000480654
0.000490653
0.000527755
0.000605569
0.000721276
0.000808483
0.000771786
0.000645466
0.00051995
0.000454598
0.00042684
0.000423901
0.000440455
0.000474488
0.000524843
0.000589703
0.00066639
0.00075229
0.000845143
0.000942547
0.0010422
0.00114225
0.00124102
0.00133671
0.0014274
0.00151121
0.00158655
0.00165231
0.00170795
0.00175354
0.0017897
0.00181748
0.00183816
0.00185313
0.0018638
0.00187167
0.00187827
0.00188504
0.00189305
0.00190265
0.00191336
0.00192423
0.00193441
0.00194365
0.00195225
0.00196051
0.00196805
0.00197338
0.00197404
0.0019673
0.00195085
0.00192337
0.00188468
0.00183566
0.00177809
0.00171445
0.00164763
0.00158064
0.00151627
0.00145677
0.00140357
0.00135727
0.00131779
0.00128463
0.00125711
0.00123453
0.00121617
0.00120139
0.00118958
0.00118018
0.00117274
0.00116686
0.00116225
0.00115864
0.00115582
0.00115364
0.00115196
0.00115068
0.0011497
0.00114896
0.0011484
0.00114799
0.00114768
0.00114746
0.0011473
0.00114719
0.00114711
0.00114705
0.00114702
0.001147
0.00114698
0.00114698
0.00114697
0.00114697
0.00114697
0.00114697
0.00114695
0.000685734
0.000675459
0.000665021
0.000654481
0.000644942
0.000640135
0.00064607
0.00066778
0.000703093
0.000737612
0.000749241
0.000735202
0.000715428
0.000701307
0.000698026
0.00070736
0.000729433
0.000763579
0.000808718
0.000863532
0.000926553
0.000996217
0.00107086
0.0011487
0.00122795
0.00130681
0.00138352
0.00145639
0.0015239
0.00158482
0.00163827
0.00168381
0.00172145
0.00175163
0.00177511
0.00179285
0.00180589
0.00181533
0.00182238
0.00182832
0.00183445
0.00184176
0.00185065
0.00186068
0.00187091
0.00188039
0.00188876
0.00189635
0.00190372
0.00191093
0.00191694
0.00191967
0.00191643
0.00190476
0.00188299
0.0018505
0.0018078
0.00175629
0.00169816
0.00163608
0.00157296
0.00151157
0.00145423
0.00140252
0.00135723
0.00131841
0.00128567
0.00125839
0.00123591
0.00121757
0.00120273
0.00119082
0.00118132
0.00117377
0.00116778
0.00116306
0.00115934
0.00115643
0.00115416
0.0011524
0.00115104
0.00114999
0.00114919
0.00114858
0.00114812
0.00114777
0.00114751
0.00114732
0.00114718
0.00114708
0.001147
0.00114695
0.00114691
0.00114688
0.00114686
0.00114684
0.00114683
0.00114682
0.00114681
0.00114679
0.000843519
0.00083364
0.00082364
0.000813513
0.000803304
0.000793443
0.000785359
0.000781484
0.000783907
0.000792473
0.000803741
0.000814485
0.000824213
0.000834393
0.000847217
0.000864692
0.000888233
0.0009186
0.000955975
0.00100006
0.00105019
0.00110538
0.00116448
0.00122618
0.0012891
0.00135183
0.00141299
0.00147127
0.00152552
0.00157477
0.00161831
0.00165577
0.00168709
0.00171256
0.00173269
0.00174818
0.00175981
0.00176841
0.00177495
0.00178051
0.00178623
0.00179307
0.00180144
0.00181101
0.0018208
0.00182981
0.00183754
0.00184427
0.0018507
0.00185727
0.00186345
0.00186754
0.00186708
0.00185953
0.00184291
0.00181626
0.00177965
0.00173411
0.0016815
0.00162425
0.00156511
0.0015068
0.00145171
0.00140154
0.00135724
0.00131906
0.0012867
0.00125965
0.00123726
0.00121893
0.00120404
0.00119205
0.00118244
0.00117478
0.00116869
0.00116386
0.00116004
0.00115703
0.00115467
0.00115282
0.00115138
0.00115027
0.00114941
0.00114874
0.00114823
0.00114784
0.00114754
0.00114732
0.00114714
0.00114701
0.00114691
0.00114684
0.00114678
0.00114673
0.0011467
0.00114667
0.00114665
0.00114663
0.00114662
0.00114658
0.000963793
0.000955594
0.000947382
0.000939238
0.000931276
0.000923659
0.000916708
0.000911099
0.000907875
0.000908098
0.000911976
0.000919074
0.000929033
0.000941792
0.000957618
0.000976981
0.00100037
0.00102816
0.00106049
0.00109728
0.00113817
0.00118259
0.00122976
0.00127882
0.00132878
0.00137864
0.0014274
0.00147411
0.00151787
0.00155792
0.0015937
0.00162486
0.00165129
0.00167314
0.00169074
0.00170458
0.00171522
0.00172331
0.0017296
0.00173499
0.00174051
0.00174705
0.00175508
0.00176433
0.00177388
0.00178263
0.00178995
0.00179601
0.00180157
0.00180735
0.00181328
0.00181813
0.00181971
0.00181552
0.00180343
0.00178211
0.00175124
0.00171148
0.00166432
0.00161192
0.00155684
0.00150173
0.00144897
0.00140041
0.00135715
0.0013196
0.00128763
0.00126078
0.00123849
0.00122017
0.00120525
0.00119319
0.0011835
0.00117574
0.00116955
0.00116461
0.0011607
0.0011576
0.00115515
0.00115322
0.00115171
0.00115052
0.0011496
0.00114888
0.00114832
0.00114788
0.00114754
0.00114728
0.00114708
0.00114692
0.0011468
0.0011467
0.00114662
0.00114656
0.00114651
0.00114647
0.00114644
0.00114641
0.00114639
0.00114635
0.00104727
0.00104123
0.00103524
0.00102942
0.0010239
0.00101886
0.0010145
0.00101108
0.00100902
0.00100882
0.00101097
0.0010158
0.00102349
0.00103415
0.0010479
0.00106483
0.00108506
0.00110864
0.00113554
0.00116565
0.00119868
0.00123424
0.00127182
0.00131083
0.00135059
0.00139041
0.00142955
0.0014673
0.00150298
0.00153598
0.00156582
0.00159217
0.00161489
0.00163402
0.00164976
0.00166243
0.00167244
0.00168026
0.00168649
0.00169188
0.00169734
0.00170374
0.00171156
0.00172062
0.00173006
0.00173873
0.00174586
0.00175148
0.00175631
0.00176127
0.00176668
0.00177176
0.0017747
0.00177314
0.00176486
0.00174827
0.0017227
0.00168841
0.00164655
0.00159896
0.00154798
0.00149615
0.00144583
0.00139897
0.00135681
0.00131994
0.00128836
0.00126173
0.00123954
0.00122125
0.00120631
0.00119419
0.00118443
0.00117659
0.00117031
0.00116529
0.00116129
0.00115811
0.00115558
0.00115357
0.00115199
0.00115074
0.00114976
0.00114898
0.00114837
0.00114789
0.00114751
0.00114722
0.00114698
0.0011468
0.00114665
0.00114653
0.00114644
0.00114636
0.0011463
0.00114625
0.0011462
0.00114617
0.00114614
0.00114608
0.00110009
0.00109612
0.00109222
0.00108853
0.00108517
0.0010823
0.00108009
0.00107871
0.00107838
0.00107938
0.001082
0.00108654
0.00109322
0.00110224
0.00111374
0.00112782
0.00114452
0.00116383
0.0011857
0.00121
0.00123652
0.00126499
0.00129506
0.00132631
0.00135829
0.00139048
0.00142235
0.00145335
0.00148295
0.00151064
0.00153602
0.00155876
0.00157871
0.00159583
0.00161022
0.00162209
0.00163171
0.00163944
0.00164574
0.00165125
0.00165677
0.00166313
0.00167084
0.0016798
0.00168923
0.00169796
0.0017051
0.00171048
0.00171478
0.00171899
0.00172374
0.00172867
0.00173238
0.00173274
0.00172754
0.00171502
0.0016942
0.001665
0.00162819
0.0015853
0.00153842
0.00148993
0.00144215
0.00139708
0.00135611
0.00131997
0.00128881
0.00126242
0.00124036
0.00122211
0.00120716
0.00119502
0.0011852
0.0011773
0.00117095
0.00116586
0.00116179
0.00115853
0.00115594
0.00115386
0.00115222
0.00115091
0.00114987
0.00114904
0.00114839
0.00114787
0.00114746
0.00114713
0.00114686
0.00114665
0.00114648
0.00114634
0.00114623
0.00114614
0.00114606
0.001146
0.00114594
0.0011459
0.00114586
0.0011458
0.00113051
0.00112817
0.00112594
0.00112392
0.00112221
0.00112096
0.0011203
0.00112037
0.00112133
0.00112336
0.00112663
0.00113132
0.0011376
0.00114563
0.00115554
0.0011674
0.00118128
0.00119717
0.00121505
0.00123482
0.00125635
0.00127945
0.00130388
0.00132936
0.00135557
0.00138212
0.00140861
0.00143462
0.0014597
0.00148345
0.0015055
0.00152556
0.00154345
0.00155909
0.00157251
0.00158382
0.00159323
0.00160097
0.00160743
0.00161313
0.00161878
0.00162517
0.00163283
0.00164176
0.00165125
0.00166014
0.00166743
0.00167279
0.00167676
0.00168035
0.0016844
0.00168894
0.00169296
0.00169461
0.00169178
0.00168264
0.00166598
0.00164139
0.00160931
0.00157094
0.0015281
0.00148298
0.00143784
0.00139467
0.00135497
0.00131963
0.00128896
0.00126283
0.00124091
0.00122273
0.00120779
0.00119563
0.00118578
0.00117783
0.00117143
0.00116629
0.00116216
0.00115885
0.0011562
0.00115407
0.00115237
0.00115101
0.00114993
0.00114906
0.00114836
0.00114781
0.00114736
0.001147
0.00114671
0.00114647
0.00114628
0.00114613
0.001146
0.00114589
0.0011458
0.00114573
0.00114566
0.00114561
0.00114556
0.00114549
0.00114639
0.00114518
0.00114408
0.00114318
0.00114258
0.00114239
0.00114271
0.00114367
0.00114539
0.001148
0.0011516
0.00115633
0.0011623
0.00116961
0.00117835
0.0011886
0.00120041
0.00121378
0.00122872
0.00124517
0.00126304
0.00128223
0.00130257
0.00132387
0.00134587
0.0013683
0.00139086
0.00141318
0.00143492
0.00145573
0.00147529
0.00149333
0.00150967
0.0015242
0.0015369
0.00154784
0.00155712
0.00156495
0.00157159
0.00157751
0.00158333
0.00158979
0.00159746
0.00160639
0.00161597
0.00162508
0.00163262
0.00163813
0.00164196
0.00164509
0.00164851
0.00165254
0.00165652
0.00165893
0.00165785
0.00165143
0.0016383
0.0016178
0.00159007
0.00155597
0.00151705
0.00147529
0.00143283
0.00139166
0.00135334
0.00131889
0.00128875
0.00126294
0.00124119
0.00122309
0.00120819
0.00119602
0.00118615
0.00117817
0.00117174
0.00116656
0.00116239
0.00115904
0.00115634
0.00115418
0.00115244
0.00115104
0.00114991
0.00114901
0.00114828
0.00114769
0.00114722
0.00114683
0.00114652
0.00114626
0.00114605
0.00114588
0.00114574
0.00114562
0.00114552
0.00114543
0.00114536
0.0011453
0.00114525
0.00114517
0.00115389
0.00115334
0.00115291
0.00115268
0.00115271
0.0011531
0.00115395
0.00115535
0.0011574
0.00116019
0.00116382
0.00116837
0.00117393
0.00118058
0.00118838
0.00119738
0.00120763
0.00121914
0.00123193
0.00124596
0.0012612
0.00127755
0.00129492
0.00131316
0.0013321
0.0013515
0.00137114
0.00139071
0.00140994
0.00142852
0.00144617
0.00146265
0.00147778
0.00149145
0.0015036
0.00151424
0.00152346
0.00153137
0.00153821
0.00154434
0.00155034
0.0015569
0.00156459
0.00157354
0.00158323
0.00159258
0.00160046
0.00160622
0.00161009
0.00161294
0.00161583
0.0016193
0.00162304
0.00162582
0.00162594
0.00162161
0.00161141
0.00159446
0.00157064
0.00154052
0.00150535
0.0014669
0.00142715
0.00138804
0.0013512
0.00131772
0.0012882
0.00126274
0.00124119
0.0012232
0.00120834
0.00119619
0.00118631
0.00117832
0.00117186
0.00116666
0.00116247
0.00115909
0.00115636
0.00115417
0.0011524
0.00115097
0.00114982
0.00114889
0.00114813
0.00114752
0.00114702
0.00114662
0.00114629
0.00114601
0.00114579
0.0011456
0.00114545
0.00114532
0.00114521
0.00114512
0.00114504
0.00114497
0.00114491
0.00114482
0.00115708
0.00115687
0.00115678
0.00115687
0.0011572
0.00115785
0.0011589
0.00116042
0.0011625
0.00116522
0.00116865
0.00117286
0.00117793
0.00118391
0.00119086
0.00119882