/*--------------------------------*- C++ -*----------------------------------*\
| =========                 |                                                 |
| \\      /  F ield         | OpenFOAM: The Open Source CFD Toolbox           |
|  \\    /   O peration     | Version:  2.1.1                                 |
|   \\  /    A nd           | Web:      www.OpenFOAM.org                      |
|    \\/     M anipulation  |                                                 |
\*---------------------------------------------------------------------------*/
FoamFile
{
    version     2.0;
    format      ascii;
    class       volScalarField;
    location    "0.035";
    object      p;
}
// * * * * * * * * * * * * * * * * * * * * * * * * * * * * * * * * * * * * * //

dimensions      [0 2 -2 0 0 0 0];

internalField   nonuniform List<scalar> 
6820
(
-10.7475
-12.5942
-13.1702
-13.2996
-13.4086
-13.4903
-13.5476
-13.5973
-13.6433
-13.6861
-13.7267
-13.7655
-13.8028
-13.8386
-13.8731
-13.9063
-13.9381
-13.9685
-13.9975
-14.0248
-14.0503
-14.0737
-14.0945
-14.1121
-14.1258
-14.1346
-14.1368
-14.1308
-14.1133
-14.0809
-14.0265
-13.9377
-13.8099
-14.6999
-14.1656
-13.7442
-13.5557
-13.533
-13.5466
-13.5697
-13.6008
-13.6366
-13.6738
-13.7115
-13.7491
-13.786
-13.8222
-13.8573
-13.8912
-13.924
-13.9553
-13.9853
-14.0136
-14.0402
-14.0647
-14.0867
-14.1058
-14.1212
-14.1322
-14.1374
-14.1356
-14.1244
-14.1035
-14.0661
-14.0327
-13.9664
-13.0573
-12.7538
-13.0415
-13.2878
-13.3951
-13.4729
-13.5347
-13.5872
-13.6348
-13.6787
-13.72
-13.7592
-13.7966
-13.8325
-13.867
-13.9002
-13.932
-13.9626
-13.9918
-14.0195
-14.0456
-14.0698
-14.0918
-14.1112
-14.1273
-14.1395
-14.1467
-14.1481
-14.1419
-14.1276
-14.1025
-14.0723
-14.0232
-13.5641
-13.5988
-13.5974
-13.5396
-13.5337
-13.5565
-13.5857
-13.6177
-13.652
-13.6873
-13.7226
-13.7577
-13.7924
-13.8264
-13.8597
-13.8922
-13.9238
-13.9543
-13.9837
-14.0119
-14.0387
-14.0638
-14.087
-14.1079
-14.126
-14.1409
-14.1518
-14.1583
-14.1592
-14.155
-14.1438
-14.1331
-14.1114
-13.4084
-13.3084
-13.3536
-13.4214
-13.4764
-13.5254
-13.5689
-13.6094
-13.6488
-13.6871
-13.7242
-13.7604
-13.7956
-13.83
-13.8633
-13.8957
-13.9272
-13.9576
-13.987
-14.0153
-14.0423
-14.0678
-14.0918
-14.1138
-14.1336
-14.1509
-14.1653
-14.1764
-14.1841
-14.1888
-14.1903
-14.1933
-14.1943
-13.4633
-13.4471
-13.4732
-13.4978
-13.522
-13.5536
-13.5879
-13.6228
-13.6581
-13.6933
-13.7282
-13.7627
-13.7965
-13.8298
-13.8624
-13.8942
-13.9253
-13.9556
-13.985
-14.0135
-14.041
-14.0674
-14.0925
-14.1162
-14.1382
-14.1585
-14.1769
-14.1935
-14.2083
-14.2224
-14.2364
-14.254
-14.2753
-13.4608
-13.44
-13.4569
-13.4872
-13.5193
-13.5546
-13.5902
-13.6254
-13.6605
-13.6954
-13.7298
-13.7638
-13.7973
-13.8302
-13.8625
-13.8941
-13.9251
-13.9555
-13.9851
-14.014
-14.0421
-14.0693
-14.0956
-14.121
-14.1453
-14.1687
-14.1912
-14.2131
-14.2349
-14.2578
-14.283
-14.3136
-14.3516
-13.4745
-13.4671
-13.4835
-13.5095
-13.5366
-13.5671
-13.5994
-13.6323
-13.6656
-13.699
-13.7322
-13.7653
-13.7979
-13.8301
-13.8619
-13.8932
-13.924
-13.9543
-13.9841
-14.0133
-14.042
-14.0702
-14.0978
-14.125
-14.1517
-14.1782
-14.2048
-14.232
-14.2604
-14.2915
-14.3267
-14.3688
-14.4205
-13.4868
-13.4832
-13.4963
-13.5194
-13.5452
-13.5743
-13.6054
-13.6371
-13.6693
-13.7017
-13.734
-13.7662
-13.7982
-13.8299
-13.8612
-13.8922
-13.9229
-13.9532
-13.9831
-14.0128
-14.0421
-14.0712
-14.1002
-14.1292
-14.1583
-14.1879
-14.2183
-14.2504
-14.2849
-14.3231
-14.367
-14.4186
-14.481
-13.4996
-13.4993
-13.5116
-13.5325
-13.5565
-13.5835
-13.6126
-13.6426
-13.6734
-13.7046
-13.7359
-13.7672
-13.7984
-13.8295
-13.8603
-13.891
-13.9214
-13.9517
-13.9818
-14.0118
-14.0418
-14.0718
-14.1021
-14.1328
-14.1641
-14.1966
-14.2307
-14.2671
-14.3069
-14.3514
-14.4022
-14.4614
-14.5319
-13.5123
-13.5136
-13.5249
-13.5438
-13.5661
-13.5914
-13.6189
-13.6476
-13.6771
-13.7072
-13.7375
-13.7679
-13.7984
-13.8288
-13.8592
-13.8895
-13.9197
-13.9499
-13.9802
-14.0105
-14.0411
-14.072
-14.1035
-14.1358
-14.1692
-14.2042
-14.2415
-14.2817
-14.3259
-14.3754
-14.4318
-14.4967
-14.5726
-13.5245
-13.5268
-13.5375
-13.5548
-13.5756
-13.5993
-13.6252
-13.6525
-13.6808
-13.7096
-13.7389
-13.7685
-13.7982
-13.828
-13.8579
-13.8878
-13.9178
-13.9479
-13.9782
-14.0088
-14.0399
-14.0716
-14.1041
-14.1378
-14.173
-14.2103
-14.2502
-14.2935
-14.3413
-14.3947
-14.455
-14.5237
-14.603
-13.5362
-13.539
-13.5491
-13.565
-13.5844
-13.6066
-13.6311
-13.6571
-13.6841
-13.7118
-13.7402
-13.7688
-13.7978
-13.8269
-13.8562
-13.8857
-13.9154
-13.9454
-13.9757
-14.0065
-14.038
-14.0703
-14.1037
-14.1386
-14.1753
-14.2144
-14.2564
-14.3021
-14.3525
-14.4086
-14.4715
-14.5424
-14.6231
-13.5473
-13.5502
-13.5597
-13.5745
-13.5926
-13.6135
-13.6366
-13.6613
-13.6871
-13.7138
-13.7411
-13.7689
-13.797
-13.8255
-13.8542
-13.8832
-13.9126
-13.9423
-13.9726
-14.0035
-14.0353
-14.068
-14.1021
-14.1379
-14.1757
-14.2161
-14.2596
-14.307
-14.3591
-14.4167
-14.4809
-14.5526
-14.633
-13.5575
-13.5604
-13.5695
-13.5832
-13.6001
-13.6198
-13.6416
-13.6651
-13.6897
-13.7154
-13.7417
-13.7686
-13.7959
-13.8236
-13.8517
-13.8803
-13.9092
-13.9387
-13.9688
-13.9997
-14.0315
-14.0646
-14.0991
-14.1354
-14.1739
-14.2152
-14.2596
-14.3079
-14.3608
-14.4189
-14.4832
-14.5543
-14.6332
-13.567
-13.5698
-13.5784
-13.5912
-13.607
-13.6255
-13.6461
-13.6684
-13.692
-13.7165
-13.7419
-13.7678
-13.7943
-13.8213
-13.8488
-13.8767
-13.9052
-13.9343
-13.9641
-13.9948
-14.0266
-14.0597
-14.0944
-14.1309
-14.1697
-14.2113
-14.256
-14.3045
-14.3573
-14.4151
-14.4784
-14.5478
-14.624
-13.5756
-13.5783
-13.5864
-13.5983
-13.6132
-13.6306
-13.6501
-13.6713
-13.6937
-13.7172
-13.7416
-13.7666
-13.7923
-13.8185
-13.8453
-13.8726
-13.9005
-13.9291
-13.9585
-13.9889
-14.0204
-14.0532
-14.0877
-14.1242
-14.1629
-14.2042
-14.2486
-14.2966
-14.3486
-14.4051
-14.4665
-14.5333
-14.6059
-13.5833
-13.5859
-13.5935
-13.6047
-13.6186
-13.635
-13.6535
-13.6735
-13.6949
-13.7174
-13.7408
-13.7649
-13.7897
-13.8151
-13.8411
-13.8677
-13.8949
-13.9229
-13.9518
-13.9816
-14.0126
-14.0451
-14.0791
-14.115
-14.1531
-14.1938
-14.2374
-14.2842
-14.3346
-14.3891
-14.4479
-14.5112
-14.5794
-13.5901
-13.5925
-13.5997
-13.6102
-13.6233
-13.6387
-13.6561
-13.6752
-13.6956
-13.717
-13.7394
-13.7626
-13.7865
-13.811
-13.8362
-13.862
-13.8885
-13.9157
-13.9439
-13.973
-14.0033
-14.035
-14.0682
-14.1033
-14.1405
-14.18
-14.2221
-14.2672
-14.3155
-14.3672
-14.4227
-14.482
-14.5453
-13.5959
-13.5982
-13.6049
-13.6148
-13.6271
-13.6416
-13.6581
-13.6762
-13.6956
-13.716
-13.7375
-13.7597
-13.7826
-13.8062
-13.8305
-13.8554
-13.881
-13.9074
-13.9347
-13.9629
-13.9923
-14.023
-14.0551
-14.089
-14.1248
-14.1627
-14.2029
-14.2457
-14.2913
-14.3398
-14.3914
-14.4461
-14.504
-13.6008
-13.603
-13.6093
-13.6185
-13.6301
-13.6438
-13.6594
-13.6765
-13.6949
-13.7144
-13.7348
-13.756
-13.778
-13.8006
-13.8239
-13.8479
-13.8725
-13.8979
-13.9241
-13.9513
-13.9795
-14.0089
-14.0397
-14.072
-14.106
-14.1419
-14.1798
-14.2199
-14.2624
-14.3072
-14.3545
-14.4042
-14.4564
-13.6047
-13.6068
-13.6127
-13.6213
-13.6322
-13.6451
-13.6598
-13.676
-13.6934
-13.712
-13.7314
-13.7516
-13.7726
-13.7942
-13.8165
-13.8393
-13.8629
-13.8871
-13.9122
-13.938
-13.9649
-13.9928
-14.022
-14.0524
-14.0843
-14.1178
-14.1531
-14.1901
-14.2289
-14.2697
-14.3124
-14.3569
-14.4032
-13.6076
-13.6095
-13.6151
-13.6232
-13.6334
-13.6456
-13.6594
-13.6747
-13.6912
-13.7088
-13.7273
-13.7465
-13.7664
-13.787
-13.8081
-13.8298
-13.8522
-13.8751
-13.8988
-13.9232
-13.9485
-13.9747
-14.0019
-14.0303
-14.0598
-14.0906
-14.1228
-14.1564
-14.1914
-14.2278
-14.2656
-14.3047
-14.345
-13.6095
-13.6113
-13.6165
-13.6241
-13.6337
-13.6451
-13.6582
-13.6726
-13.6882
-13.7048
-13.7223
-13.7405
-13.7593
-13.7787
-13.7987
-13.8192
-13.8402
-13.8618
-13.884
-13.9068
-13.9303
-13.9546
-13.9796
-14.0056
-14.0325
-14.0604
-14.0893
-14.1192
-14.1501
-14.182
-14.2148
-14.2484
-14.2826
-13.6104
-13.612
-13.6169
-13.624
-13.633
-13.6438
-13.6561
-13.6697
-13.6844
-13.7001
-13.7166
-13.7337
-13.7515
-13.7697
-13.7885
-13.8077
-13.8273
-13.8474
-13.8679
-13.8889
-13.9105
-13.9326
-13.9554
-13.9788
-14.0028
-14.0275
-14.0529
-14.079
-14.1057
-14.1329
-14.1606
-14.1887
-14.2169
-13.6101
-13.6117
-13.6162
-13.6229
-13.6313
-13.6414
-13.6529
-13.6657
-13.6795
-13.6943
-13.7098
-13.7259
-13.7425
-13.7596
-13.777
-13.7948
-13.813
-13.8315
-13.8503
-13.8694
-13.8889
-13.9088
-13.929
-13.9497
-13.9707
-13.9922
-14.0139
-14.036
-14.0584
-14.0809
-14.1035
-14.1261
-14.1484
-13.6089
-13.6103
-13.6146
-13.6208
-13.6288
-13.6383
-13.6492
-13.6613
-13.6743
-13.6882
-13.7027
-13.7178
-13.7332
-13.7491
-13.7652
-13.7816
-13.7982
-13.8149
-13.8319
-13.849
-13.8663
-13.8838
-13.9014
-13.9191
-13.937
-13.955
-13.9731
-13.9911
-14.0091
-14.0269
-14.0444
-14.0616
-14.0782
-13.6065
-13.6078
-13.6116
-13.6173
-13.6245
-13.6333
-13.6435
-13.6548
-13.667
-13.68
-13.6936
-13.7076
-13.722
-13.7367
-13.7515
-13.7664
-13.7815
-13.7965
-13.8116
-13.8267
-13.8418
-13.8568
-13.8717
-13.8866
-13.9013
-13.9159
-13.9302
-13.9442
-13.9578
-13.971
-13.9836
-13.9955
-14.0066
-13.6031
-13.6044
-13.6082
-13.6138
-13.6208
-13.6294
-13.6391
-13.6498
-13.6613
-13.6735
-13.6861
-13.699
-13.7122
-13.7256
-13.7389
-13.7523
-13.7656
-13.7788
-13.7919
-13.8048
-13.8174
-13.8299
-13.842
-13.8538
-13.8653
-13.8763
-13.8868
-13.8968
-13.9061
-13.9147
-13.9225
-13.9293
-13.935
-13.5983
-13.599
-13.6016
-13.606
-13.6121
-13.6197
-13.6288
-13.6388
-13.6498
-13.6613
-13.6732
-13.6854
-13.6977
-13.71
-13.7223
-13.7344
-13.7462
-13.7578
-13.7691
-13.7799
-13.7904
-13.8004
-13.8099
-13.8188
-13.8272
-13.8348
-13.8417
-13.8478
-13.8531
-13.8573
-13.8605
-13.8625
-13.8633
-13.5935
-13.5955
-13.5994
-13.6046
-13.6111
-13.6187
-13.6273
-13.6367
-13.6468
-13.6572
-13.668
-13.6788
-13.6897
-13.7004
-13.711
-13.7213
-13.7312
-13.7407
-13.7497
-13.7582
-13.7662
-13.7735
-13.7801
-13.7859
-13.791
-13.7951
-13.7984
-13.8006
-13.8017
-13.8017
-13.8004
-13.7978
-13.7937
-13.584
-13.582
-13.5818
-13.5844
-13.5896
-13.5968
-13.6056
-13.6153
-13.6258
-13.6366
-13.6476
-13.6585
-13.6692
-13.6797
-13.6897
-13.6992
-13.7081
-13.7164
-13.724
-13.7308
-13.7369
-13.742
-13.7463
-13.7495
-13.7518
-13.7529
-13.7529
-13.7517
-13.7492
-13.7453
-13.74
-13.7332
-13.7248
-13.5853
-13.5913
-13.5962
-13.6004
-13.6052
-13.611
-13.6179
-13.6255
-13.6337
-13.6422
-13.6508
-13.6594
-13.6678
-13.6758
-13.6835
-13.6906
-13.6971
-13.7029
-13.708
-13.7122
-13.7155
-13.7178
-13.7191
-13.7193
-13.7183
-13.7161
-13.7126
-13.7077
-13.7014
-13.6936
-13.6843
-13.6734
-13.6607
-13.5542
-13.5415
-13.536
-13.539
-13.5468
-13.5568
-13.568
-13.5798
-13.5919
-13.6037
-13.6152
-13.6261
-13.6363
-13.6457
-13.6542
-13.6618
-13.6684
-13.674
-13.6785
-13.6818
-13.6839
-13.6848
-13.6843
-13.6825
-13.6793
-13.6747
-13.6685
-13.6608
-13.6515
-13.6406
-13.6279
-13.6136
-13.5974
-13.6018
-13.6206
-13.6228
-13.6169
-13.6141
-13.6146
-13.6174
-13.6215
-13.6264
-13.632
-13.6378
-13.6436
-13.6492
-13.6544
-13.659
-13.663
-13.6661
-13.6684
-13.6696
-13.6698
-13.6688
-13.6666
-13.6631
-13.6582
-13.6518
-13.6439
-13.6345
-13.6235
-13.6108
-13.5964
-13.5803
-13.5623
-13.5425
-13.479
-13.43
-13.4183
-13.4443
-13.4676
-13.4884
-13.5086
-13.5277
-13.5452
-13.5612
-13.5755
-13.5883
-13.5996
-13.6094
-13.6176
-13.6243
-13.6296
-13.6333
-13.6355
-13.6361
-13.6352
-13.6326
-13.6283
-13.6224
-13.6147
-13.6053
-13.5941
-13.5811
-13.5662
-13.5495
-13.5309
-13.5104
-13.488
-13.7232
-13.7571
-13.7243
-13.6785
-13.6478
-13.6362
-13.6306
-13.6277
-13.6272
-13.6284
-13.6304
-13.6328
-13.6352
-13.6374
-13.639
-13.6399
-13.64
-13.6391
-13.637
-13.6338
-13.6292
-13.6232
-13.6158
-13.6067
-13.5961
-13.5837
-13.5697
-13.5538
-13.5361
-13.5165
-13.4951
-13.4717
-13.4464
-13.2305
-13.1106
-13.1722
-13.2729
-13.3444
-13.3911
-13.4304
-13.4641
-13.4922
-13.5157
-13.5356
-13.5522
-13.5661
-13.5774
-13.5864
-13.5932
-13.598
-13.6007
-13.6014
-13.6002
-13.5971
-13.592
-13.585
-13.5759
-13.565
-13.552
-13.537
-13.52
-13.501
-13.4799
-13.4569
-13.4319
-13.4048
-14.4432
-14.1037
-13.8391
-13.7188
-13.6677
-13.6397
-13.6211
-13.6108
-13.6061
-13.6045
-13.6048
-13.606
-13.6075
-13.6088
-13.6097
-13.6099
-13.6091
-13.6071
-13.604
-13.5994
-13.5933
-13.5857
-13.5764
-13.5653
-13.5524
-13.5377
-13.521
-13.5024
-13.4818
-13.4591
-13.4344
-13.4076
-13.3788
-11.9386
-12.6447
-13.0472
-13.198
-13.2993
-13.3782
-13.4335
-13.4736
-13.5046
-13.5286
-13.5473
-13.5619
-13.5733
-13.5818
-13.588
-13.5918
-13.5935
-13.5932
-13.5909
-13.5866
-13.5803
-13.572
-13.5617
-13.5493
-13.5349
-13.5185
-13.4999
-13.4792
-13.4565
-13.4316
-13.4047
-13.3757
-13.3446
-13.512
-13.049
-12.9154
-13.379
-14.2263
-15.3572
-16.6356
-17.9628
-19.2889
-20.582
-21.8118
-22.9514
-23.9771
-24.8725
-25.6203
-26.2105
-26.633
-26.8777
-26.9327
-26.7837
-26.4127
-25.7982
-24.9193
-23.7645
-22.3409
-20.6726
-18.7943
-16.7739
-14.6923
-12.6163
-10.6133
-8.75029
-7.07513
-5.61006
-4.35557
-3.29828
-2.4182
-1.69322
-1.10166
-0.623497
-0.240903
0.061792
0.298189
0.479982
0.617117
0.717958
0.789479
0.837468
0.86671
0.881139
0.883966
0.877781
0.864654
0.846234
0.823833
0.7985
0.771081
0.74226
0.712597
0.682553
0.652513
0.622794
0.593664
0.565338
0.537979
0.511697
0.486549
0.462549
0.439686
0.417926
0.397225
0.37753
0.358779
0.340909
0.323851
0.307538
0.2919
0.276872
0.26239
0.248393
0.234823
0.221627
0.208754
0.196158
0.183795
0.171626
0.159614
0.147727
0.135933
0.124206
0.112518
0.100852
0.0891727
0.0774919
0.0657228
0.053992
0.0419812
0.0303052
0.0176294
0.00670802
-14.1336
-13.7973
-13.5641
-13.8037
-14.4112
-15.3238
-16.4525
-17.7073
-19.0105
-20.2956
-21.5115
-22.6286
-23.6221
-24.475
-25.1792
-25.7257
-26.1053
-26.3067
-26.3166
-26.1193
-25.6975
-25.0341
-24.1197
-22.962
-21.5729
-19.9699
-18.1946
-16.3022
-14.344
-12.3832
-10.4886
-8.71993
-7.11953
-5.70882
-4.49068
-3.45536
-2.58642
-1.86479
-1.27116
-0.787328
-0.396754
-0.0847349
0.161648
0.353618
0.500802
0.611356
0.692125
0.748813
0.786164
0.808103
0.817854
0.818039
0.810766
0.797722
0.780253
0.759439
0.736148
0.71109
0.684847
0.657897
0.630645
0.60343
0.576539
0.550209
0.524624
0.499918
0.476168
0.453413
0.431656
0.41088
0.391054
0.372133
0.354068
0.336803
0.320277
0.304431
0.289204
0.274535
0.260367
0.246645
0.233315
0.220327
0.207637
0.195198
0.182973
0.170924
0.159016
0.147219
0.135502
0.123843
0.112213
0.100599
0.088964
0.0773217
0.065589
0.0538832
0.041911
0.0302374
0.0176377
0.00661886
-13.9805
-13.7437
-13.6835
-14.006
-14.6343
-15.4964
-16.5213
-17.6411
-18.8059
-19.9728
-21.1006
-22.1498
-23.0935
-23.9106
-24.5844
-25.0983
-25.4396
-25.597
-25.5585
-25.3125
-24.8512
-24.1725
-23.275
-22.1569
-20.8259
-19.3079
-17.638
-15.8535
-14.0059
-12.1569
-10.367
-8.68866
-7.16038
-5.803
-4.62135
-3.60877
-2.75201
-2.03479
-1.44006
-0.951359
-0.55345
-0.232595
0.0234258
0.225338
0.382431
0.502638
0.592655
0.658091
0.703633
0.733183
0.749966
0.756629
0.755313
0.747742
0.735295
0.719086
0.700009
0.678798
0.656056
0.632283
0.607902
0.583272
0.558698
0.534437
0.510695
0.487627
0.465335
0.443874
0.42327
0.403519
0.384603
0.366489
0.349139
0.332504
0.316534
0.301177
0.286379
0.272086
0.258247
0.244813
0.231734
0.218965
0.206466
0.194192
0.182112
0.170188
0.158388
0.146685
0.13505
0.123462
0.111894
0.100332
0.0887447
0.0771421
0.0654478
0.0537694
0.0418375
0.0301656
0.017648
0.00652478
-14.1223
-14.0798
-14.1206
-14.4106
-14.9446
-15.6822
-16.5788
-17.5786
-18.6308
-19.6912
-20.719
-21.676
-22.5357
-23.2785
-23.887
-24.3452
-24.6401
-24.761
-24.6985
-24.4448
-23.9925
-23.3346
-22.466
-21.3894
-20.1218
-18.6856
-17.1065
-15.4223
-13.682
-11.9396
-10.2488
-8.65643
-7.19755
-5.89237
-4.74722
-3.75806
-2.91447
-2.20273
-1.60789
-1.11516
-0.710616
-0.381464
-0.116207
0.0953671
0.262188
0.391946
0.491175
0.565378
0.61917
0.656414
0.680328
0.693569
0.698308
0.696303
0.688967
0.677446
0.662665
0.645382
0.626222
0.605706
0.584277
0.56231
0.54013
0.518012
0.496182
0.474817
0.454038
0.433925
0.414519
0.395834
0.377866
0.360593
0.343986
0.328009
0.312619
0.297772
0.283422
0.269522
0.256027
0.242893
0.230077
0.217538
0.205238
0.193138
0.181209
0.169416
0.15773
0.146125
0.134576
0.123062
0.111559
0.100053
0.0885146
0.0769535
0.0652997
0.0536497
0.0417605
0.03009
0.017659
0.00642668
-14.2138
-14.2187
-14.3011
-14.5887
-15.0891
-15.7679
-16.5867
-17.4963
-18.4488
-19.4039
-20.3284
-21.1944
-21.9771
-22.6526
-23.2041
-23.6163
-23.8757
-23.9711
-23.8925
-23.6306
-23.1771
-22.5279
-21.686
-20.6581
-19.454
-18.092
-16.5994
-15.012
-13.3733
-11.7315
-10.1341
-8.6233
-7.23104
-5.97678
-4.86799
-3.90283
-3.07334
-2.36808
-1.77412
-1.27826
-0.867806
-0.530947
-0.256904
-0.0359995
0.140319
0.279482
0.387846
0.470795
0.532863
0.577862
0.608988
0.628898
0.639784
0.643434
0.641296
0.634547
0.624141
0.610864
0.595365
0.578183
0.559781
0.540553
0.52084
0.500935
0.481083
0.461481
0.442274
0.42356
0.405399
0.387822
0.370838
0.354439
0.338606
0.323313
0.308527
0.294211
0.280329
0.266839
0.253704
0.240884
0.228343
0.216043
0.203952
0.192034
0.180263
0.168607
0.15704
0.145539
0.134079
0.122643
0.111207
0.0997599
0.0882733
0.0767559
0.0651443
0.0535241
0.0416797
0.0300108
0.0176704
0.00632547
-14.3164
-14.3796
-14.5179
-14.8103
-15.269
-15.8731
-16.5979
-17.4082
-18.2614
-19.1201
-19.9549
-20.7394
-21.4482
-22.0579
-22.552
-22.9156
-23.1354
-23.2004
-23.1012
-22.8304
-22.3825
-21.7543
-20.9462
-19.9635
-18.8176
-17.5274
-16.1182
-14.6225
-13.0794
-11.5319
-10.0226
-8.58915
-7.26077
-6.0561
-4.98344
-4.04274
-3.22818
-2.53041
-1.93831
-1.4402
-1.02461
-0.680676
-0.398342
-0.16848
0.017064
0.165444
0.282829
0.374469
0.444809
0.497599
0.535998
0.562655
0.579773
0.589163
0.592305
0.590407
0.584456
0.57526
0.563495
0.549721
0.53442
0.518001
0.500825
0.483201
0.465393
0.447616
0.430036
0.412772
0.395902
0.379475
0.363513
0.348021
0.332993
0.318412
0.304254
0.290492
0.277096
0.264034
0.251274
0.238783
0.226528
0.214479
0.202606
0.190879
0.179272
0.16776
0.156318
0.144925
0.133559
0.122204
0.110839
0.0994528
0.0880204
0.0765487
0.0649814
0.0533923
0.0415947
0.0299279
0.0176816
0.00622205
-14.4117
-14.5083
-14.6733
-14.9595
-15.3823
-15.9285
-16.5768
-17.2978
-18.0587
-18.8299
-19.5832
-20.2916
-20.9297
-21.4771
-21.9172
-22.2358
-22.4201
-22.4595
-22.345
-22.0697
-21.628
-21.0176
-20.24
-19.3014
-18.2128
-16.9918
-15.6617
-14.2524
-12.7991
-11.3404
-9.91402
-8.55387
-7.28668
-6.13023
-5.09337
-4.17751
-3.37866
-2.68931
-2.10003
-1.60058
-1.18064
-0.830287
-0.540194
-0.301789
-0.107329
0.0500467
0.176301
0.276546
0.355122
0.41571
0.461423
0.49489
0.518313
0.533521
0.542021
0.545051
0.543627
0.538586
0.530626
0.52033
0.508198
0.494659
0.480087
0.46481
0.449109
0.433217
0.417319
0.401556
0.386024
0.370788
0.355886
0.341336
0.327142
0.3133
0.299795
0.286609
0.273721
0.261104
0.248735
0.236586
0.224631
0.212843
0.201198
0.189669
0.178235
0.166873
0.155561
0.144281
0.133014
0.121744
0.110453
0.0991309
0.0877553
0.0763314
0.0648105
0.0532541
0.0415054
0.0298413
0.0176918
0.00611738
-14.4968
-14.6167
-14.8003
-15.0817
-15.474
-15.9691
-16.5502
-17.1942
-17.8739
-18.5627
-19.2352
-19.8674
-20.4366
-20.9234
-21.3115
-21.5866
-21.7365
-21.7509
-21.6213
-21.3413
-20.9063
-20.3146
-19.568
-18.6725
-17.6389
-16.4836
-15.2284
-13.9006
-12.5317
-11.1563
-9.80799
-8.51733
-7.30875
-6.19913
-5.19765
-4.3069
-3.52443
-2.84439
-2.25888
-1.75898
-1.3355
-0.97942
-0.682133
-0.435633
-0.232602
-0.0664885
0.0684539
0.177183
0.26393
0.332297
0.385342
0.425662
0.45545
0.476545
0.490475
0.498504
0.501678
0.50086
0.496773
0.490023
0.481127
0.470532
0.45863
0.445763
0.432229
0.41828
0.404121
0.389909
0.375761
0.361758
0.347953
0.334378
0.32105
0.307975
0.295148
0.28256
0.270199
0.258046
0.246083
0.234291
0.222648
0.211133
0.199725
0.188404
0.17715
0.165945
0.154769
0.143608
0.132443
0.121262
0.110049
0.0987936
0.0874773
0.0761036
0.0646312
0.0531091
0.0414112
0.029751
0.0177005
0.00601242
-14.5696
-14.7044
-14.8969
-15.1694
-15.5321
-15.9805
-16.5014
-17.0761
-17.6818
-18.2953
-18.894
-19.4563
-19.9614
-20.3911
-20.7296
-20.9636
-21.0811
-21.0724
-20.9294
-20.6461
-20.2185
-19.6454
-18.9289
-18.075
-17.0941
-16.0014
-14.8171
-13.5658
-12.2763
-10.979
-9.70424
-8.47945
-7.32697
-6.26276
-5.29619
-4.43072
-3.66525
-2.99535
-2.4145
-1.91504
-1.48883
-1.12772
-0.823833
-0.569718
-0.358493
-0.18393
-0.0405128
0.0765512
0.171377
0.247476
0.307847
0.355044
0.391242
0.418281
0.437704
0.450799
0.458636
0.462107
0.461957
0.458815
0.453218
0.44563
0.436459
0.426063
0.414757
0.402808
0.39044
0.377829
0.365111
0.352382
0.339711
0.327146
0.314714
0.302433
0.290309
0.278342
0.266528
0.254856
0.243317
0.231896
0.220577
0.209346
0.198187
0.187082
0.176016
0.164975
0.153941
0.142903
0.131846
0.120758
0.109625
0.0984402
0.0871861
0.0758649
0.0644431
0.0529572
0.0413119
0.0296571
0.0177068
0.00590816
-14.6291
-14.7726
-14.9678
-15.2292
-15.5644
-15.9704
-16.4372
-16.9491
-17.4875
-18.032
-18.5625
-19.0596
-19.5045
-19.8802
-20.1721
-20.3671
-20.4542
-20.4238
-20.2686
-19.9828
-19.5631
-19.0085
-18.3214
-17.5077
-16.577
-15.5438
-14.4263
-13.2471
-12.0319
-10.808
-9.60255
-8.44018
-7.34137
-6.32116
-5.38893
-4.54885
-3.80089
-3.14188
-2.56656
-2.0684
-1.64027
-1.27485
-0.964975
-0.703749
-0.484735
-0.302039
-0.150389
-0.0251665
0.0776162
0.161377
0.229043
0.28312
0.325757
0.358785
0.383755
0.401973
0.414535
0.422354
0.426202
0.426728
0.424489
0.419967
0.413586
0.405719
0.396697
0.386803
0.376279
0.365318
0.354073
0.342659
0.331161
0.319638
0.308133
0.296673
0.285276
0.273953
0.262705
0.251534
0.240434
0.229398
0.218418
0.207482
0.196581
0.185701
0.174832
0.16396
0.153075
0.142166
0.131221
0.12023
0.109182
0.0980703
0.086881
0.0756148
0.0642459
0.0527979
0.0412071
0.0295594
0.0177099
0.00580554
-14.6753
-14.8227
-15.0159
-15.2642
-15.5728
-15.94
-16.3574
-16.8125
-17.2893
-17.7705
-18.2382
-18.675
-19.0639
-19.3893
-19.6374
-19.796
-19.8546
-19.8043
-19.6381
-19.3507
-18.9392
-18.403
-17.7444
-16.9691
-16.0864
-15.1093
-14.0549
-12.9434
-11.7979
-10.643
-9.50274
-8.39953
-7.35204
-6.37441
-5.47591
-4.66121
-3.93118
-3.28376
-2.71477
-2.21874
-1.78948
-1.42048
-1.10524
-0.837433
-0.611062
-0.420576
-0.260959
-0.127779
-0.0171848
0.074141
0.149048
0.209988
0.259074
0.298121
0.328681
0.352073
0.369412
0.381636
0.389537
0.393786
0.394961
0.393561
0.390025
0.384743
0.378058
0.370272
0.361641
0.352377
0.34265
0.332591
0.322301
0.311854
0.301305
0.290694
0.28005
0.269391
0.258731
0.248078
0.237433
0.226797
0.216168
0.205539
0.194906
0.18426
0.173595
0.162902
0.152171
0.141396
0.130567
0.119678
0.108718
0.0976832
0.0865617
0.0753529
0.0640391
0.0526312
0.0410964
0.029458
0.0177092
0.0057054
-14.7084
-14.856
-15.0437
-15.2776
-15.5608
-15.892
-16.2646
-16.668
-17.0887
-17.5119
-17.9219
-18.3029
-18.6397
-18.9182
-19.1254
-19.25
-19.2821
-19.2134
-19.0373
-18.749
-18.3459
-17.8276
-17.1965
-16.458
-15.6208
-14.6969
-13.7018
-12.6538
-11.5738
-10.4835
-9.40471
-8.35756
-7.35912
-6.42263
-5.55717
-4.76777
-4.05603
-3.42078
-2.85887
-2.36578
-1.93617
-1.5643
-1.24433
-0.970483
-0.737203
-0.539293
-0.372
-0.231088
-0.112851
-0.0140789
0.0679941
0.135759
0.191285
0.236365
0.272546
0.301153
0.323315
0.339992
0.351996
0.36002
0.36466
0.366433
0.365795
0.363148
0.358853
0.353224
0.346535
0.339013
0.330846
0.322182
0.313135
0.303797
0.294233
0.284498
0.27463
0.264658
0.254605
0.244487
0.234314
0.224092
0.213826
0.203516
0.193162
0.182759
0.172306
0.161797
0.151228
0.140593
0.129885
0.119101
0.108234
0.0972786
0.0862278
0.075079
0.0638226
0.0524568
0.0409796
0.029353
0.0177039
0.00560849
-14.7288
-14.8738
-15.0537
-15.272
-15.5308
-15.8287
-16.1602
-16.5165
-16.8861
-17.2562
-17.6131
-17.9427
-18.2314
-18.4662
-18.6354
-18.7284
-18.7359
-18.6503
-18.4654
-18.1768
-17.7822
-17.2814
-16.6767
-15.9733
-15.1792
-14.3054
-13.366
-12.3776
-11.3589
-10.3293
-9.30843
-8.31438
-7.36277
-6.466
-5.63284
-4.86856
-4.17534
-3.55281
-2.99867
-2.50925
-2.08003
-1.70601
-1.38195
-1.10261
-0.862893
-0.657943
-0.483285
-0.334888
-0.209197
-0.103119
-0.0139768
0.0605538
0.122494
0.173607
0.215425
0.249275
0.276298
0.297469
0.313622
0.325467
0.333619
0.338613
0.340919
0.340956
0.339098
0.335674
0.330972
0.325236
0.318669
0.311436
0.303668
0.295469
0.28692
0.278086
0.269018
0.259754
0.250328
0.240763
0.231077
0.221284
0.211394
0.201414
0.191348
0.181198
0.170965
0.160648
0.150245
0.139755
0.129174
0.1185
0.107729
0.0968563
0.0858791
0.0747929
0.063596
0.0522746
0.0408564
0.0292444
0.0176934
0.00551539
-14.7372
-14.8774
-15.0476
-15.2498
-15.4851
-15.752
-16.0458
-16.3591
-16.6821
-17.0037
-17.3119
-17.5942
-17.8385
-18.033
-18.167
-18.2306
-18.2155
-18.1143
-17.9216
-17.6332
-17.2471
-16.7632
-16.1839
-15.5137
-14.7603
-13.9337
-13.0467
-12.1142
-11.1528
-10.1803
-9.2139
-8.27013
-7.36322
-6.50471
-5.70305
-4.96365
-4.28911
-3.67973
-3.13397
-2.64892
-2.22082
-1.84532
-1.5178
-1.23354
-0.987863
-0.776277
-0.594584
-0.438966
-0.306031
-0.192807
-0.0967113
-0.0154925
0.052817
0.109944
0.157402
0.196514
0.228425
0.254125
0.274463
0.290169
0.301875
0.310132
0.315427
0.318193
0.318815
0.317639
0.314967
0.311057
0.306129
0.300364
0.293907
0.286878
0.279371
0.271463
0.263217
0.254683
0.245902
0.236907
0.227723
0.218373
0.208872
0.199232
0.189465
0.179576
0.169571
0.159453
0.149223
0.138884
0.128435
0.117874
0.107202
0.0964163
0.0855155
0.0744946
0.0633595
0.0520846
0.0407268
0.0291322
0.0176773
0.00542651
-14.7342
-14.8679
-15.0272
-15.213
-15.4256
-15.6635
-15.9227
-16.1967
-16.4772
-16.7545
-17.0181
-17.2571
-17.4605
-17.6179
-17.7193
-17.7559
-17.7199
-17.6046
-17.4049
-17.1172
-16.7396
-16.2721
-15.7168
-15.0783
-14.3633
-13.581
-12.7431
-11.8629
-10.9554
-10.0362
-9.12121
-8.22502
-7.36072
-6.53901
-5.76801
-5.05314
-4.39735
-3.80148
-3.26463
-2.7846
-2.35829
-1.98199
-1.65163
-1.363
-1.11185
-0.894042
-0.705659
-0.543105
-0.403152
-0.282961
-0.180046
-0.0922343
-0.0176178
0.0454892
0.0985758
0.142954
0.17977
0.210024
0.234577
0.254178
0.269474
0.281033
0.289355
0.294887
0.298031
0.299143
0.298539
0.296493
0.29324
0.288976
0.283862
0.278031
0.271592
0.264635
0.257234
0.249449
0.241332
0.232922
0.224256
0.215361
0.206261
0.196973
0.187514
0.177895
0.168125
0.158213
0.148163
0.137979
0.127666
0.117224
0.106655
0.0959586
0.0851371
0.074184
0.0631129
0.0518869
0.0405906
0.0290166
0.0176554
0.00534205
-14.7205
-14.8465
-14.994
-15.1633
-15.3542
-15.5651
-15.7923
-16.0304
-16.272
-16.5089
-16.7318
-16.9311
-17.097
-17.2202
-17.2918
-17.3035
-17.2484
-17.1204
-16.9147
-16.628
-16.2587
-15.8069
-15.2746
-14.6659
-13.9871
-13.2465
-12.4546
-11.6233
-10.7662
-9.89719
-9.03044
-8.17925
-7.35551
-6.56916
-5.82792
-5.13717
-4.50011
-3.91802
-3.39055
-2.91612
-2.49223
-2.11575
-1.78317
-1.49072
-1.23459
-1.01099
-0.816274
-0.64708
-0.500354
-0.373389
-0.263806
-0.169515
-0.0886704
-0.0196336
0.0390547
0.0886904
0.130418
0.16524
0.194031
0.217553
0.236468
0.25136
0.262743
0.271077
0.276777
0.280212
0.281712
0.281565
0.280019
0.277287
0.273545
0.268939
0.263594
0.257611
0.251075
0.244058
0.236621
0.228814
0.220679
0.212253
0.203564
0.194639
0.185497
0.176156
0.166629
0.156929
0.147064
0.137042
0.126869
0.116549
0.106087
0.0954836
0.0847442
0.0738616
0.0628565
0.0516816
0.0404479
0.0288976
0.0176275
0.00526206
-14.6969
-14.8142
-14.9494
-15.1024
-15.2724
-15.458
-15.6557
-15.8608
-16.0671
-16.2671
-16.4529
-16.6159
-16.7476
-16.8396
-16.8837
-16.8728
-16.8003
-16.6607
-16.4498
-16.1646
-15.8035
-15.3668
-14.8563
-14.2758
-13.631
-12.9295
-12.1805
-11.3951
-10.5851
-9.76307
-8.94173
-8.13306
-7.34789
-6.59545
-5.88302
-5.21591
-4.59748
-4.02935
-3.51165
-3.04333
-2.62245
-2.2464
-1.91217
-1.61646
-1.35584
-1.12686
-0.926185
-0.750662
-0.59742
-0.463891
-0.347808
-0.247166
-0.160189
-0.0852883
-0.0210398
0.033832
0.0804633
0.119859
0.152901
0.180362
0.202919
0.221169
0.235639
0.246805
0.255091
0.26088
0.264514
0.266296
0.266488
0.265316
0.262972
0.259617
0.255388
0.250399
0.244748
0.238517
0.231777
0.224586
0.216997
0.209051
0.200786
0.192232
0.183417
0.174362
0.165085
0.155603
0.145929
0.136073
0.126045
0.115852
0.1055
0.094992
0.0843373
0.0735275
0.0625906
0.051469
0.0402989
0.0287756
0.0175938
0.00518638
-14.6642
-14.7721
-14.8948
-15.0316
-15.1817
-15.3436
-15.5141
-15.689
-15.8629
-16.0294
-16.1814
-16.3114
-16.4119
-16.4753
-16.4946
-16.463
-16.3747
-16.2249
-16.0095
-15.726
-15.3731
-14.9508
-14.4609
-13.907
-13.2942
-12.6292
-11.9205
-11.1778
-10.4119
-9.6339
-8.85522
-8.08668
-7.33816
-6.61816
-5.93357
-5.28956
-4.68957
-4.1355
-3.62789
-3.16613
-2.74878
-2.37372
-2.0384
-1.73995
-1.47532
-1.24141
-1.03515
-0.853617
-0.694128
-0.55426
-0.431857
-0.325009
-0.23201
-0.151326
-0.0815739
-0.0215015
0.0300146
0.0739766
0.111272
0.142682
0.168895
0.190521
0.208101
0.22212
0.233016
0.241185
0.24698
0.250717
0.252672
0.253085
0.252163
0.250081
0.246989
0.243014
0.238266
0.232837
0.226808
0.220248
0.213215
0.205761
0.19793
0.189757
0.181276
0.172515
0.163495
0.154238
0.144759
0.135074
0.125195
0.115132
0.104893
0.0944843
0.083917
0.0731825
0.0623155
0.0512495
0.0401439
0.0286507
0.0175546
0.00511473
-14.6233
-14.7213
-14.8313
-14.9524
-15.0835
-15.2232
-15.3685
-15.5158
-15.6601
-15.796
-15.9173
-16.0174
-16.0895
-16.127
-16.1236
-16.0734
-15.971
-15.812
-15.593
-15.3115
-14.9665
-14.558
-14.0877
-13.5588
-12.9758
-12.3451
-11.674
-10.9713
-10.2465
-9.50968
-8.77106
-8.04037
-7.3266
-6.63759
-5.97984
-5.35831
-4.77652
-4.23654
-3.73924
-3.28443
-2.87108
-2.49754
-2.16165
-1.86097
-1.59281
-1.35439
-1.14292
-0.955705
-0.79025
-0.644277
-0.51575
-0.402853
-0.303957
-0.217587
-0.142401
-0.0771775
-0.0208086
0.0277016
0.0692419
0.104601
0.134477
0.159489
0.180191
0.19708
0.210605
0.221172
0.229149
0.234862
0.238601
0.240621
0.241141
0.240351
0.238414
0.23547
0.23164
0.227028
0.221724
0.215807
0.209343
0.202391
0.195002
0.187219
0.17908
0.170619
0.161862
0.152835
0.143557
0.134048
0.124321
0.114391
0.104269
0.0939618
0.0834842
0.0728271
0.062032
0.0510236
0.0399833
0.0285232
0.0175103
0.00504672
-14.5748
-14.6628
-14.7601
-14.8659
-14.9791
-15.0979
-15.22
-15.3419
-15.4593
-15.5675
-15.6608
-15.7337
-15.7801
-15.7943
-15.7704
-15.7033
-15.5883
-15.4213