/*--------------------------------*- C++ -*----------------------------------*\
| =========                 |                                                 |
| \\      /  F ield         | OpenFOAM: The Open Source CFD Toolbox           |
|  \\    /   O peration     | Version:  2.1.1                                 |
|   \\  /    A nd           | Web:      www.OpenFOAM.org                      |
|    \\/     M anipulation  |                                                 |
\*---------------------------------------------------------------------------*/
FoamFile
{
    version     2.0;
    format      ascii;
    class       surfaceScalarField;
    location    "0.035";
    object      phi;
}
// * * * * * * * * * * * * * * * * * * * * * * * * * * * * * * * * * * * * * //

dimensions      [0 3 -1 0 0 0 0];

internalField   nonuniform List<scalar> 
13452
(
6.89927e-05
-5.05388e-07
6.88152e-05
1.77407e-07
6.82062e-05
6.09011e-07
6.72622e-05
9.44009e-07
6.61903e-05
1.07192e-06
6.51047e-05
1.08561e-06
6.40473e-05
1.05744e-06
6.30354e-05
1.01189e-06
6.20774e-05
9.57944e-07
6.11769e-05
9.00507e-07
6.03349e-05
8.42022e-07
5.95509e-05
7.83964e-07
5.88236e-05
7.27309e-07
5.81509e-05
6.72753e-07
5.75301e-05
6.20786e-07
5.69583e-05
5.71739e-07
5.64325e-05
5.25828e-07
5.59493e-05
4.83188e-07
5.55054e-05
4.43897e-07
5.50974e-05
4.08011e-07
5.47218e-05
3.75587e-07
5.43751e-05
3.46713e-07
5.40536e-05
3.21539e-07
5.37533e-05
3.00321e-07
5.34698e-05
2.83477e-07
5.31981e-05
2.71683e-07
5.29321e-05
2.65996e-07
5.26638e-05
2.68326e-07
5.23826e-05
2.81198e-07
5.20705e-05
3.12038e-07
5.17035e-05
3.67018e-07
5.12228e-05
4.8067e-07
7.22466e-07
5.05004e-05
7.0165e-05
-2.26455e-07
7.00414e-05
3.01034e-07
7.01823e-05
4.6814e-07
7.051e-05
6.1624e-07
7.08613e-05
7.2067e-07
7.11613e-05
7.85619e-07
7.13874e-05
8.31295e-07
7.15414e-05
8.57876e-07
7.16313e-05
8.68068e-07
7.16659e-05
8.65866e-07
7.16537e-05
8.5425e-07
7.16021e-05
8.35583e-07
7.15177e-05
8.11714e-07
7.14063e-05
7.84159e-07
7.12729e-05
7.54154e-07
7.1122e-05
7.22711e-07
7.09571e-05
6.90665e-07
7.07816e-05
6.58714e-07
7.0598e-05
6.27448e-07
7.04087e-05
5.97386e-07
7.02152e-05
5.69006e-07
7.00192e-05
5.42784e-07
6.98215e-05
5.19234e-07
6.96228e-05
4.98955e-07
6.94236e-05
4.82713e-07
6.92238e-05
4.71503e-07
6.9023e-05
4.66785e-07
6.88208e-05
4.70478e-07
6.8616e-05
4.86032e-07
6.84113e-05
5.16791e-07
6.82046e-05
5.73711e-07
6.80356e-05
6.4967e-07
7.98551e-07
6.79595e-05
7.22818e-05
-5.17668e-08
7.23977e-05
1.8522e-07
7.25035e-05
3.62267e-07
7.25918e-05
5.28004e-07
7.2677e-05
6.35394e-07
7.27615e-05
7.01192e-07
7.28504e-05
7.4237e-07
7.29403e-05
7.67974e-07
7.30272e-05
7.81207e-07
7.31084e-05
7.84642e-07
7.31824e-05
7.80266e-07
7.32483e-05
7.6969e-07
7.33057e-05
7.54242e-07
7.33548e-05
7.35096e-07
7.33957e-05
7.1327e-07
7.34288e-05
6.89639e-07
7.34545e-05
6.64967e-07
7.34732e-05
6.39924e-07
7.34856e-05
6.1511e-07
7.34919e-05
5.91086e-07
7.34925e-05
5.68397e-07
7.34877e-05
5.47613e-07
7.34775e-05
5.29363e-07
7.34621e-05
5.14391e-07
7.34412e-05
5.03631e-07
7.34144e-05
4.98268e-07
7.33812e-05
4.99974e-07
7.33409e-05
5.10816e-07
7.32926e-05
5.34344e-07
7.32361e-05
5.73313e-07
7.31719e-05
6.37856e-07
7.31012e-05
7.20328e-07
8.68367e-07
7.30314e-05
7.45188e-05
-4.39192e-08
7.44893e-05
2.14697e-07
7.4479e-05
3.72549e-07
7.45203e-05
4.86733e-07
7.45828e-05
5.72833e-07
7.4652e-05
6.32034e-07
7.47212e-05
6.73166e-07
7.47889e-05
7.00282e-07
7.48548e-05
7.15348e-07
7.49186e-05
7.20758e-07
7.49803e-05
7.18573e-07
7.50396e-05
7.10395e-07
7.50963e-05
6.97525e-07
7.51504e-05
6.81092e-07
7.52016e-05
6.62058e-07
7.52499e-05
6.41257e-07
7.52955e-05
6.19419e-07
7.53382e-05
5.972e-07
7.53781e-05
5.75201e-07
7.54152e-05
5.53997e-07
7.54494e-05
5.3417e-07
7.54807e-05
5.16333e-07
7.55089e-05
5.01182e-07
7.55338e-05
4.89532e-07
7.5555e-05
4.824e-07
7.55722e-05
4.81053e-07
7.5585e-05
4.87208e-07
7.55929e-05
5.02927e-07
7.55958e-05
5.3143e-07
7.55937e-05
5.75402e-07
7.55896e-05
6.41908e-07
7.55813e-05
7.2866e-07
8.57124e-07
7.55926e-05
7.66037e-05
8.20446e-09
7.66292e-05
1.89193e-07
7.66672e-05
3.34623e-07
7.67072e-05
4.4669e-07
7.6748e-05
5.32013e-07
7.67905e-05
5.89517e-07
7.6836e-05
6.27686e-07
7.68841e-05
6.5225e-07
7.69336e-05
6.65828e-07
7.69837e-05
6.70597e-07
7.70339e-05
6.68364e-07
7.70838e-05
6.60549e-07
7.7133e-05
6.48338e-07
7.71813e-05
6.32769e-07
7.72286e-05
6.14744e-07
7.72748e-05
5.95057e-07
7.73198e-05
5.74415e-07
7.73636e-05
5.53461e-07
7.7406e-05
5.32799e-07
7.74469e-05
5.13018e-07
7.74864e-05
4.94719e-07
7.75242e-05
4.78548e-07
7.75601e-05
4.65235e-07
7.7594e-05
4.55634e-07
7.76256e-05
4.50791e-07
7.76547e-05
4.51985e-07
7.7681e-05
4.60873e-07
7.77045e-05
4.79409e-07
7.77256e-05
5.10373e-07
7.77448e-05
5.56203e-07
7.77648e-05
6.21928e-07
7.77861e-05
7.07378e-07
8.23951e-07
7.78192e-05
7.88315e-05
2.26384e-08
7.88399e-05
1.80782e-07
7.88595e-05
3.15061e-07
7.88903e-05
4.15856e-07
7.89292e-05
4.93109e-07
7.89715e-05
5.47191e-07
7.90154e-05
5.83819e-07
7.90601e-05
6.07525e-07
7.91053e-05
6.20624e-07
7.91508e-05
6.25124e-07
7.91964e-05
6.22789e-07
7.92419e-05
6.15033e-07
7.92872e-05
6.03022e-07
7.93322e-05
5.87769e-07
7.93768e-05
5.70154e-07
7.94209e-05
5.50952e-07
7.94645e-05
5.30858e-07
7.95074e-05
5.10513e-07
7.95497e-05
4.90522e-07
7.95912e-05
4.71482e-07
7.96319e-05
4.54007e-07
7.96717e-05
4.38761e-07
7.97105e-05
4.26484e-07
7.97481e-05
4.18037e-07
7.97844e-05
4.14448e-07
7.98194e-05
4.16948e-07
7.98532e-05
4.27065e-07
7.98861e-05
4.46555e-07
7.99188e-05
4.77711e-07
7.99523e-05
5.22631e-07
7.99895e-05
5.84735e-07
8.00321e-05
6.64768e-07
7.68237e-07
8.00879e-05
8.10851e-05
3.61341e-08
8.10959e-05
1.69943e-07
8.11209e-05
2.90093e-07
8.11536e-05
3.83119e-07
8.11909e-05
4.55785e-07
8.12302e-05
5.07932e-07
8.12707e-05
5.43332e-07
8.13122e-05
5.66011e-07
8.13544e-05
5.78378e-07
8.13971e-05
5.824e-07
8.14402e-05
5.7978e-07
8.14833e-05
5.71886e-07
8.15265e-05
5.59852e-07
8.15696e-05
5.44661e-07
8.16126e-05
5.2717e-07
8.16554e-05
5.08139e-07
8.1698e-05
4.88254e-07
8.17403e-05
4.68149e-07
8.17824e-05
4.48429e-07
8.18242e-05
4.29695e-07
8.18657e-05
4.12563e-07
8.19067e-05
3.97694e-07
8.19474e-05
3.85822e-07
8.19877e-05
3.77782e-07
8.20276e-05
3.74547e-07
8.20673e-05
3.77251e-07
8.21071e-05
3.87241e-07
8.21476e-05
4.06021e-07
8.21899e-05
4.35401e-07
8.22355e-05
4.77044e-07
8.22871e-05
5.3318e-07
8.23472e-05
6.04594e-07
6.93592e-07
8.24219e-05
8.34104e-05
4.12689e-08
8.34212e-05
1.59133e-07
8.34435e-05
2.67759e-07
8.34732e-05
3.53481e-07
8.35083e-05
4.20687e-07
8.35464e-05
4.69791e-07
8.35863e-05
5.03484e-07
8.36272e-05
5.25093e-07
8.36687e-05
5.36822e-07
8.37107e-05
5.40466e-07
8.37529e-05
5.37611e-07
8.37952e-05
5.29578e-07
8.38375e-05
5.1747e-07
8.388e-05
5.02247e-07
8.39224e-05
4.8475e-07
8.39648e-05
4.65726e-07
8.40072e-05
4.45851e-07
8.40496e-05
4.25753e-07
8.4092e-05
4.06033e-07
8.41344e-05
3.87285e-07
8.41768e-05
3.70117e-07
8.42194e-05
3.55174e-07
8.4262e-05
3.43159e-07
8.43049e-05
3.34858e-07
8.43483e-05
3.31158e-07
8.43925e-05
3.3306e-07
8.44381e-05
3.41701e-07
8.44858e-05
3.583e-07
8.4537e-05
3.84211e-07
8.45934e-05
4.20633e-07
8.46577e-05
4.68891e-07
8.47328e-05
5.29437e-07
6.0278e-07
8.48236e-05
8.57966e-05
4.33592e-08
8.58074e-05
1.48387e-07
8.58291e-05
2.46004e-07
8.5858e-05
3.24579e-07
8.58921e-05
3.86589e-07
8.59293e-05
4.32606e-07
8.59683e-05
4.64481e-07
8.60085e-05
4.84885e-07
8.60495e-05
4.95825e-07
8.6091e-05
4.98959e-07
8.61329e-05
4.9577e-07
8.61749e-05
4.8751e-07
8.62172e-05
4.75245e-07
8.62595e-05
4.59899e-07
8.6302e-05
4.42289e-07
8.63446e-05
4.23143e-07
8.63873e-05
4.03124e-07
8.64302e-05
3.82847e-07
8.64733e-05
3.629e-07
8.65168e-05
3.43863e-07
8.65605e-05
3.26324e-07
8.66048e-05
3.10896e-07
8.66497e-05
2.98235e-07
8.66956e-05
2.89054e-07
8.67426e-05
2.84133e-07
8.67913e-05
2.84319e-07
8.68425e-05
2.90524e-07
8.68971e-05
3.03677e-07
8.69566e-05
3.24713e-07
8.70229e-05
3.54389e-07
8.70984e-05
3.93341e-07
8.71862e-05
4.41595e-07
4.98641e-07
8.72904e-05
8.82504e-05
4.29781e-08
8.82613e-05
1.37447e-07
8.82821e-05
2.252e-07
8.83097e-05
2.9701e-07
8.83424e-05
3.53922e-07
8.83784e-05
3.9655e-07
8.84166e-05
4.26255e-07
8.84563e-05
4.45185e-07
8.8497e-05
4.55134e-07
8.85384e-05
4.57606e-07
8.85802e-05
4.5396e-07
8.86223e-05
4.4537e-07
8.86647e-05
4.32846e-07
8.87074e-05
4.17274e-07
8.87502e-05
3.99439e-07
8.87933e-05
3.80045e-07
8.88367e-05
3.59734e-07
8.88804e-05
3.391e-07
8.89246e-05
3.18714e-07
8.89694e-05
2.99128e-07
8.90148e-05
2.809e-07
8.90611e-05
2.64598e-07
8.91085e-05
2.50817e-07
8.91574e-05
2.40181e-07
8.92082e-05
2.33349e-07
8.92615e-05
2.31003e-07
8.93182e-05
2.33831e-07
8.93794e-05
2.42482e-07
8.94466e-05
2.57529e-07
8.95216e-05
2.79336e-07
8.96069e-05
3.08024e-07
8.97053e-05
3.4323e-07
3.83892e-07
8.982e-05
9.07731e-05
4.12207e-08
9.0784e-05
1.26529e-07
9.08039e-05
2.0529e-07
9.08304e-05
2.70531e-07
9.08619e-05
3.22414e-07
9.08969e-05
3.61498e-07
9.09344e-05
3.88813e-07
9.09735e-05
4.06068e-07
9.10138e-05
4.14831e-07
9.10549e-05
4.16462e-07
9.10967e-05
4.12198e-07
9.11389e-05
4.03131e-07
9.11816e-05
3.90213e-07
9.12246e-05
3.74282e-07
9.12679e-05
3.56087e-07
9.13117e-05
3.36299e-07
9.13559e-05
3.15534e-07
9.14006e-05
2.9436e-07
9.1446e-05
2.73316e-07
9.14922e-05
2.52923e-07
9.15394e-05
2.33696e-07
9.15879e-05
2.16148e-07
9.16379e-05
2.00801e-07
9.16899e-05
1.88182e-07
9.17444e-05
1.78821e-07
9.18022e-05
1.73235e-07
9.18641e-05
1.71902e-07
9.19314e-05
1.75218e-07
9.20054e-05
1.8345e-07
9.20881e-05
1.96638e-07
9.21816e-05
2.14535e-07
9.22884e-05
2.36485e-07
2.61161e-07
9.24111e-05
9.33672e-05
3.8631e-08
9.33781e-05
1.15659e-07
9.33972e-05
1.86195e-07
9.34226e-05
2.45109e-07
9.3453e-05
2.92062e-07
9.3487e-05
3.27497e-07
9.35236e-05
3.5222e-07
9.3562e-05
3.67593e-07
9.36019e-05
3.74974e-07
9.36428e-05
3.75581e-07
9.36845e-05
3.70532e-07
9.37267e-05
3.60835e-07
9.37696e-05
3.47374e-07
9.38129e-05
3.3094e-07
9.38568e-05
3.12237e-07
9.39012e-05
2.919e-07
9.39462e-05
2.70511e-07
9.3992e-05
2.48604e-07
9.40386e-05
2.26682e-07
9.40863e-05
2.05227e-07
9.41353e-05
1.847e-07
9.41859e-05
1.65554e-07
9.42384e-05
1.48231e-07
9.42935e-05
1.33156e-07
9.43516e-05
1.20733e-07
9.44135e-05
1.1132e-07
9.44802e-05
1.05209e-07
9.45528e-05
1.02578e-07
9.46328e-05
1.03446e-07
9.47218e-05
1.0761e-07
9.48218e-05
1.1457e-07
9.49348e-05
1.23485e-07
1.32948e-07
9.5063e-05
9.60351e-05
3.55912e-08
9.60459e-05
1.04928e-07
9.60642e-05
1.67868e-07
9.60886e-05
2.20677e-07
9.61179e-05
2.62784e-07
9.61509e-05
2.94505e-07
9.61866e-05
3.1648e-07
9.62244e-05
3.29799e-07
9.62638e-05
3.35625e-07
9.63043e-05
3.35038e-07
9.63458e-05
3.29045e-07
9.63881e-05
3.18563e-07
9.6431e-05
3.04413e-07
9.64746e-05
2.87326e-07
9.65189e-05
2.67964e-07
9.65639e-05
2.46919e-07
9.66097e-05
2.24732e-07
9.66564e-05
2.01901e-07
9.67042e-05
1.78888e-07
9.67533e-05
1.56124e-07
9.6804e-05
1.34017e-07
9.68566e-05
1.12953e-07
9.69115e-05
9.32903e-08
9.69693e-05
7.53566e-08
9.70306e-05
5.94341e-08
9.70962e-05
4.57414e-08
9.7167e-05
3.44065e-08
9.72441e-05
2.54312e-08
9.73289e-05
1.86502e-08
9.74229e-05
1.36844e-08
9.75275e-05
9.88385e-09
9.76447e-05
6.31703e-09
1.61665e-09
9.7776e-05
9.8779e-05
3.233e-08
9.87895e-05
9.43914e-08
9.88071e-05
1.50249e-07
9.88306e-05
1.97174e-07
9.88589e-05
2.34524e-07
9.88909e-05
2.62497e-07
9.89258e-05
2.81604e-07
9.89629e-05
2.92723e-07
9.90017e-05
2.96839e-07
9.90418e-05
2.94902e-07
9.9083e-05
2.87813e-07
9.91252e-05
2.76401e-07
9.91682e-05
2.61417e-07
9.9212e-05
2.43536e-07
9.92566e-05
2.23368e-07
9.9302e-05
2.01461e-07
9.93484e-05
1.78313e-07
9.9396e-05
1.54378e-07
9.94448e-05
1.30072e-07
9.94951e-05
1.05776e-07
9.95473e-05
8.18402e-08
9.96017e-05
5.85809e-08
9.96587e-05
3.62773e-08
9.97189e-05
1.5163e-08
9.97829e-05
-4.58751e-09
9.98515e-05
-2.28769e-08
9.99256e-05
-3.97088e-08
0.000100006
-5.52166e-08
0.000100095
-6.9696e-08
0.000100192
-8.36351e-08
0.0001003
-9.77558e-08
0.000100419
-1.13006e-07
-1.30636e-07
0.000100551
0.000101601
2.89886e-08
0.000101611
8.40973e-08
0.000101628
1.33291e-07
0.000101651
1.74544e-07
0.000101678
2.07226e-07
0.000101709
2.3144e-07
0.000101743
2.47591e-07
0.00010178
2.56386e-07
0.000101818
2.58658e-07
0.000101858
2.55234e-07
0.000101898
2.46912e-07
0.00010194
2.34436e-07
0.000101983
2.18485e-07
0.000102027
1.99677e-07
0.000102072
1.78567e-07
0.000102118
1.55657e-07
0.000102165
1.31398e-07
0.000102213
1.06197e-07
0.000102263
8.0423e-08
0.000102314
5.44041e-08
0.000102367
2.84314e-08
0.000102423
2.75526e-09
0.000102482
-2.242e-08
0.000102544
-4.6945e-08
0.00010261
-7.07376e-08
0.000102681
-9.37994e-08
0.000102758
-1.16235e-07
0.000102841
-1.38272e-07
0.000102931
-1.60289e-07
0.00010303
-1.82828e-07
0.000103139
-2.06621e-07
0.000103259
-2.32577e-07
-2.6179e-07
0.00010339
0.000104504
2.56504e-08
0.000104514
7.40769e-08
0.00010453
1.16955e-07
0.000104552
1.52735e-07
0.000104578
1.80842e-07
0.000104608
2.01303e-07
0.000104642
2.14436e-07
0.000104677
2.20811e-07
0.000104715
2.21124e-07
0.000104754
2.16093e-07
0.000104794
2.06416e-07
0.000104836
1.92755e-07
0.000104879
1.7572e-07
0.000104923
1.55866e-07
0.000104967
1.33695e-07
0.000105013
1.09658e-07
0.000105061
8.41583e-08
0.000105109
5.75566e-08
0.00010516
3.01707e-08
0.000105212
2.27733e-09
0.000105266
-2.58892e-08
0.000105323
-5.41403e-08
0.000105383
-8.23388e-08
0.000105446
-1.10407e-07
0.000105514
-1.3834e-07
0.000105586
-1.66212e-07
0.000105664
-1.94201e-07
0.000105749
-2.22594e-07
0.00010584
-2.51809e-07
0.00010594
-2.82397e-07
0.000106048
-3.1506e-07
0.000106166
-3.50626e-07
-3.90017e-07
0.000106294
0.000107489
2.23636e-08
0.000107499
6.43503e-08
0.000107515
1.01205e-07
0.000107536
1.31702e-07
0.000107561
1.55329e-07
0.000107591
1.72059e-07
0.000107623
1.82135e-07
0.000107658
1.86015e-07
0.000107694
1.84278e-07
0.000107733
1.77538e-07
0.000107773
1.66404e-07
0.000107814
1.51455e-07
0.000107857
1.33234e-07
0.0001079
1.12233e-07
0.000107945
8.89007e-08
0.000107991
6.36357e-08
0.000108039
3.67936e-08
0.000108088
8.68645e-09
0.000108138
-2.04165e-08
0.000108191
-5.02889e-08
0.000108246
-8.07491e-08
0.000108303
-1.11664e-07
0.000108364
-1.42954e-07
0.000108428
-1.74601e-07
0.000108496
-2.06655e-07
0.000108569
-2.39247e-07
0.000108648
-2.72597e-07
0.000108732
-3.07023e-07
0.000108823
-3.42947e-07
0.000108922
-3.80898e-07
0.000109028
-4.21517e-07
0.000109143
-4.65529e-07
-5.13677e-07
0.000109267
0.00011056
1.91551e-08
0.00011057
5.49276e-08
0.000110585
8.60143e-08
0.000110605
1.11406e-07
0.00011063
1.30651e-07
0.000110658
1.43685e-07
0.000110689
1.50686e-07
0.000110723
1.52018e-07
0.00011076
1.48161e-07
0.000110798
1.39632e-07
0.000110837
1.26956e-07
0.000110878
1.10637e-07
0.00011092
9.11479e-08
0.000110963
6.89223e-08
0.000111008
4.43517e-08
0.000111054
1.77853e-08
0.000111101
-1.04703e-08
0.00011115
-4.01502e-08
0.0001112
-7.10319e-08
0.000111253
-1.02936e-07
0.000111308
-1.35728e-07
0.000111366
-1.69322e-07
0.000111426
-2.03687e-07
0.000111491
-2.38849e-07
0.000111559
-2.749e-07
0.000111632
-3.12003e-07
0.000111709
-3.50399e-07
0.000111793
-3.90408e-07
0.000111882
-4.32435e-07
0.000111978
-4.76962e-07
0.000112081
-5.24549e-07
0.000112192
-5.75809e-07
-6.31314e-07
0.000112309
0.000113719
1.60386e-08
0.000113728
4.58129e-08
0.000113742
7.1358e-08
0.000113762
9.18135e-08
0.000113786
1.06779e-07
0.000113813
1.16163e-07
0.000113844
1.20089e-07
0.000113877
1.18843e-07
0.000113912
1.12815e-07
0.00011395
1.0244e-07
0.000113988
8.81615e-08
0.000114029
7.04112e-08
0.00011407
4.95967e-08
0.000114113
2.60922e-08
0.000114157
2.35379e-10
0.000114203
-2.7675e-08
0.00011425
-5.73794e-08
0.000114298
-8.8658e-08
0.000114348
-1.21332e-07
0.000114401
-1.55264e-07
0.000114455
-1.90362e-07
0.000114513
-2.26578e-07
0.000114573
-2.63919e-07
0.000114636
-3.02442e-07
0.000114704
-3.42263e-07
0.000114775
-3.83562e-07
0.000114852
-4.2658e-07
0.000114933
-4.71622e-07
0.000115019
-5.19056e-07
0.000115112
-5.69302e-07
0.00011521
-6.2283e-07
0.000115314
-6.80137e-07
-7.41639e-07
0.000115425
0.000116967
1.30206e-08
0.000116976
3.70057e-08
0.00011699
5.72168e-08
0.000117009
7.28979e-08
0.000117032
8.36896e-08
0.000117059
8.94811e-08
0.000117089
9.03489e-08
0.000117121
8.65146e-08
0.000117156
7.82907e-08
0.000117192
6.60341e-08
0.00011723
5.01151e-08
0.00011727
3.08976e-08
0.00011731
8.7262e-09
0.000117353
-1.60822e-08
0.000117396
-4.32425e-08
0.000117441
-7.25043e-08
0.000117487
-1.03653e-07
0.000117535
-1.36512e-07
0.000117585
-1.7094e-07
0.000117636
-2.0684e-07
0.00011769
-2.44151e-07
0.000117746
-2.8286e-07
0.000117805
-3.22997e-07
0.000117868
-3.64639e-07
0.000117933
-4.07916e-07
0.000118003
-4.53005e-07
0.000118076
-5.00135e-07
0.000118154
-5.49581e-07
0.000118237
-6.01661e-07
0.000118324
-6.56726e-07
0.000118417
-7.15152e-07
0.000118514
-7.77327e-07
-8.43527e-07
0.000118616
0.000120309
1.01035e-08
0.000120317
2.85032e-08
0.000120331
4.35746e-08
0.000120349
5.46376e-08
0.000120372
6.1364e-08
0.000120398
6.36305e-08
0.000120426
6.1475e-08
0.000120458
5.50623e-08
0.000120492
4.46378e-08
0.000120527
3.04889e-08
0.000120564
1.2918e-08
0.000120603
-7.77524e-09
0.000120643
-3.13058e-08
0.000120684
-5.74116e-08
0.000120727
-8.58579e-08
0.000120771
-1.1644e-07
0.000120816
-1.48987e-07
0.000120863
-1.83359e-07
0.000120912
-2.19452e-07
0.000120962
-2.572e-07
0.000121014
-2.9657e-07
0.000121069
-3.37571e-07
0.000121126
-3.80249e-07
0.000121186
-4.24693e-07
0.000121249
-4.71031e-07
0.000121316
-5.19428e-07
0.000121386
-5.70089e-07
0.000121459
-6.23251e-07
0.000121537
-6.79174e-07
0.000121618
-7.38138e-07
0.000121704
-8.00428e-07
0.000121793
-8.6633e-07
-9.35996e-07
0.000121885
0.000123746
7.28789e-09
0.000123754
2.03018e-08
0.000123767
3.04191e-08
0.000123785
3.70162e-08
0.000123807
3.979e-08
0.000123832
3.86091e-08
0.00012386
3.34798e-08
0.00012389
2.45185e-08
0.000123923
1.1912e-08
0.000123957
-4.11514e-09
0.000123994
-2.33228e-08
0.000124031
-4.54713e-08
0.00012407
-7.03319e-08
0.000124111
-9.76947e-08
0.000124152
-1.27373e-07
0.000124195
-1.59204e-07
0.000124239
-1.93057e-07
0.000124284
-2.28828e-07
0.000124331
-2.66442e-07
0.00012438
-3.0586e-07
0.000124431
-3.47071e-07
0.000124483
-3.90098e-07
0.000124538
-4.34996e-07
0.000124595
-4.81855e-07
0.000124655
-5.30792e-07
0.000124717
-5.81955e-07
0.000124783
-6.35515e-07
0.000124851
-6.91663e-07
0.000124923
-7.50605e-07
0.000124997
-8.12546e-07
0.000125074
-8.77688e-07
0.000125154
-9.46225e-07
-1.01821e-06
0.000125236
0.000127281
4.57318e-09
0.000127289
1.23982e-08
0.000127302
1.77404e-08
0.000127319
2.00206e-08
0.00012734
1.89571e-08
0.000127364
1.44152e-08
0.000127391
6.37621e-09
0.000127421
-5.08432e-09
0.000127452
-1.98311e-08
0.000127486
-3.76958e-08
0.000127521
-5.8496e-08
0.000127558
-8.20478e-08
0.000127595
-1.08176e-07
0.000127634
-1.36718e-07
0.000127675
-1.67534e-07
0.000127716
-2.00502e-07
0.000127758
-2.35524e-07
0.000127802
-2.72528e-07
0.000127847
-3.11468e-07
0.000127894
-3.52323e-07
0.000127942
-3.95098e-07
0.000127991
-4.39826e-07
0.000128043
-4.86562e-07
0.000128096
-5.3539e-07
0.000128152
-5.86411e-07
0.00012821
-6.39749e-07
0.00012827
-6.95537e-07
0.000128332
-7.53922e-07
0.000128397
-8.15049e-07
0.000128463
-8.7906e-07
0.000128532
-9.46079e-07
0.000128602
-1.01622e-06
-1.08945e-06
0.000128673
0.000130917
1.95975e-09
0.000130925
4.79181e-09
0.000130937
5.53527e-09
0.000130954
3.64645e-09
0.000130974
-1.13584e-09
0.000130997
-8.94466e-09
0.000131023
-1.98166e-08
0.000131052
-3.371e-08
0.000131083
-5.05338e-08
0.000131115
-7.01707e-08
0.000131149
-9.24909e-08
0.000131184
-1.17363e-07
0.000131221
-1.4466e-07
0.000131258
-1.74269e-07
0.000131297
-2.06088e-07
0.000131337
-2.40034e-07
0.000131377
-2.76043e-07
0.000131419
-3.14068e-07
0.000131461
-3.54086e-07
0.000131505
-3.96091e-07
0.00013155
-4.401e-07
0.000131596
-4.86148e-07
0.000131644
-5.34288e-07
0.000131693
-5.84591e-07
0.000131744
-6.37138e-07
0.000131796
-6.92025e-07
0.00013185
-7.49349e-07
0.000131905
-8.09209e-07
0.000131962
-8.71699e-07
0.00013202
-9.36896e-07
0.000132079
-1.00486e-06
0.000132138
-1.07564e-06
-1.14913e-06
0.000132198
0.000134658
-5.53779e-10
0.000134665
-2.52037e-09
0.000134677
-6.20503e-09
0.000134692
-1.21208e-08
0.000134712
-2.0504e-08
0.000134734
-3.14786e-08
0.00013476
-4.50921e-08
0.000134787
-6.13304e-08
0.000134817
-8.0142e-08
0.000134848
-1.01456e-07
0.000134881
-1.25191e-07
0.000134915
-1.51264e-07
0.00013495
-1.79598e-07
0.000134986
-2.10119e-07
0.000135022
-2.42767e-07
0.00013506
-2.77492e-07
0.000135098
-3.14259e-07
0.000135137
-3.53047e-07
0.000135177
-3.93847e-07
0.000135217
-4.36668e-07
0.000135259
-4.81533e-07
0.000135301
-5.28475e-07
0.000135344
-5.7754e-07
0.000135388
-6.28785e-07
0.000135434
-6.8227e-07
0.00013548
-7.3806e-07
0.000135526
-7.96216e-07
0.000135574
-8.56794e-07
0.000135622
-9.19839e-07
0.000135671
-9.85377e-07
0.000135719
-1.05341e-06
0.000135767
-1.12393e-06
-1.19678e-06
0.000135815
0.000138505
-2.95797e-09
0.000138512
-9.51721e-09
0.000138523
-1.74526e-08
0.000138538
-2.7253e-08
0.000138557
-3.9123e-08
0.000138578
-5.31663e-08
0.000138603
-6.94308e-08
0.000138629
-8.79213e-08
0.000138658
-1.08619e-07
0.000138688
-1.31494e-07
0.000138719
-1.56512e-07
0.000138751
-1.83637e-07
0.000138785
-2.12835e-07
0.000138819
-2.44076e-07
0.000138853
-2.77335e-07
0.000138888
-3.12594e-07
0.000138924
-3.49845e-07
0.00013896
-3.89087e-07
0.000138996
-4.30328e-07
0.000139033
-4.73584e-07
0.000139071
-5.18881e-07
0.000139108
-5.6625e-07
0.000139147
-6.15727e-07
0.000139185
-6.67352e-07
0.000139224
-7.21163e-07
0.000139263
-7.77197e-07
0.000139303
-8.3548e-07
0.000139342
-8.96032e-07
0.000139381
-9.58853e-07
0.000139419
-1.02393e-06
0.000139457
-1.09121e-06
0.000139494
-1.16064e-06
-1.23204e-06
0.000139529
0.000142462
-5.27325e-09
0.000142468
-1.62327e-08
0.000142479
-2.82613e-08
0.000142494
-4.18171e-08
0.000142512
-5.7055e-08
0.000142532
-7.40474e-08
0.000142556
-9.28388e-08
0.000142581
-1.1345e-07
0.000142609
-1.35893e-07
0.000142637
-1.60177e-07
0.000142667
-1.86311e-07
0.000142698
-2.14303e-07
0.000142729
-2.44161e-07
0.000142761
-2.75894e-07
0.000142793
-3.09512e-07
0.000142826
-3.45026e-07
0.000142858
-3.82451e-07
0.000142891
-4.21804e-07
0.000142924
-4.63107e-07
0.000142956
-5.06382e-07
0.000142989
-5.51656e-07
0.000143022
-5.98955e-07
0.000143055
-6.48304e-07
0.000143087
-6.99728e-07
0.000143119
-7.53244e-07
0.000143151
-8.0886e-07
0.000143182
-8.66577e-07
0.000143212
-9.26378e-07
0.000143241
-9.88229e-07
0.00014327
-1.05208e-06
0.000143296
-1.11784e-06
0.000143321
-1.18544e-06
-1.25464e-06
0.000143344
0.000146531
-7.398e-09
0.000146538
-2.24901e-08
0.000146548
-3.84261e-08
0.000146562
-5.56427e-08
0.000146579
-7.42038e-08
0.000146599
-9.41088e-08
0.000146621
-1.1537e-07
0.000146646
-1.3801e-07
0.000146672
-1.62067e-07
0.0001467
-1.87594e-07
0.000146728
-2.14644e-07
0.000146757
-2.43274e-07
0.000146786
-2.73537e-07
0.000146816
-3.0548e-07
0.000146845
-3.39148e-07
0.000146875
-3.74581e-07
0.000146904
-4.11816e-07
0.000146933
-4.50887e-07
0.000146962
-4.91827e-07
0.00014699
-5.34662e-07
0.000147018
-5.7942e-07
0.000147045
-6.26121e-07
0.000147072
-6.74781e-07
0.000147098
-7.25407e-07
0.000147122
-7.77999e-07
0.000147146
-8.32543e-07
0.000147168
-8.89013e-07
0.000147189
-9.47366e-07
0.000147209
-1.00754e-06
0.000147226
-1.06945e-06
0.000147241
-1.133e-06
0.000147254
-1.19806e-06
-1.26442e-06
0.000147264
0.000150718
-9.61705e-09
0.000150724
-2.86653e-08
0.000150734
-4.83374e-08
0.000150747
-6.90271e-08
0.000150764
-9.07098e-08
0.000150783
-1.13328e-07
0.000150805
-1.3687e-07
0.000150828
-1.6136e-07
0.000150853
-1.86852e-07
0.000150879
-2.13432e-07
0.000150905
-2.41193e-07
0.000150932
-2.70235e-07
0.000150959
-3.00649e-07
0.000150986
-3.32522e-07
0.000151013
-3.65931e-07
0.000151039
-4.00942e-07
0.000151065
-4.37615e-07
0.00015109
-4.75999e-07
0.000151115
-5.16136e-07
0.000151138
-5.58059e-07
0.00015116
-6.01796e-07
0.000151182
-6.47361e-07
0.000151202
-6.94761e-07
0.00015122
-7.43993e-07
0.000151237
-7.95039e-07
0.000151253
-8.47868e-07
0.000151266
-9.02433e-07
0.000151277
-9.5867e-07
0.000151286
-1.0165e-06
0.000151293
-1.07581e-06
0.000151296
-1.13649e-06
0.000151296
-1.19839e-06
-1.26129e-06
0.000151293
0.000155023
-1.09175e-08
0.000155028
-3.35053e-08
0.000155036
-5.69397e-08
0.000155049
-8.14452e-08
0.000155065
-1.06612e-07
0.000155084
-1.3217e-07
0.000155105
-1.58049e-07
0.000155128
-1.84292e-07
0.000155152
-2.11013e-07
0.000155177
-2.38364e-07
0.000155202
-2.66504e-07
0.000155227
-2.95591e-07
0.000155253
-3.25768e-07
0.000155277
-3.57164e-07
0.000155301
-3.8989e-07
0.000155324
-4.24039e-07
0.000155346
-4.59691e-07
0.000155367
-4.96911e-07
0.000155387
-5.35748e-07
0.000155405
-5.7624e-07
0.000155422
-6.18413e-07
0.000155437
-6.62279e-07
0.00015545
-7.07838e-07
0.000155461
-7.55074e-07
0.00015547
-8.03958e-07
0.000155476
-8.54445e-07
0.00015548
-9.06473e-07
0.000155482
-9.59964e-07
0.00015548
-1.01482e-06
0.000155475
-1.07093e-06
0.000155467
-1.12815e-06
0.000155455
-1.18635e-06
-1.24528e-06
0.000155439
0.000159454
-1.40978e-08
0.00015946
-3.96378e-08
0.000159469
-6.59341e-08
0.000159481
-9.32737e-08
0.000159495
-1.21215e-07
0.000159512
-1.49317e-07
0.000159532
-1.77351e-07
0.000159553
-2.05267e-07
0.000159575
-2.33161e-07
0.000159598
-2.61209e-07
0.000159621
-2.89614e-07
0.000159644
-3.18582e-07
0.000159666
-3.48307e-07
0.000159688
-3.78959e-07
0.000159709
-4.10686e-07
0.000159729
-4.43615e-07
0.000159747
-4.77846e-07
0.000159763
-5.13462e-07
0.000159778
-5.50527e-07
0.000159791
-5.89084e-07
0.000159802
-6.29162e-07
0.00015981
-6.70773e-07
0.000159816
-7.13913e-07
0.00015982
-7.5856e-07
0.00015982
-8.04678e-07
0.000159818
-8.52213e-07
0.000159813
-9.01093e-07
0.000159804
-9.51231e-07
0.000159792
-1.00252e-06
0.000159776
-1.05484e-06
0.000159756
-1.10806e-06
0.000159731
-1.16202e-06
-1.21651e-06
0.000159703
0.000164003
-1.14281e-08
0.000164004
-4.05021e-08
0.00016401
-7.2095e-08
0.000164022
-1.05018e-07
0.000164038
-1.37438e-07
0.000164058
-1.68715e-07
0.000164079
-1.98813e-07
0.000164102
-2.27919e-07
0.000164125
-2.56325e-07
0.000164148
-2.84345e-07
0.000164171
-3.12286e-07
0.000164193
-3.40434e-07
0.000164214
-3.6904e-07
0.000164233
-3.98318e-07
0.000164251
-4.28447e-07
0.000164267
-4.59576e-07
0.000164281
-4.91822e-07
0.000164292
-5.25279e-07
0.000164302
-5.60016e-07
0.000164309
-5.96081e-07
0.000164313
-6.33504e-07
0.000164315
-6.72294e-07
0.000164313
-7.12444e-07
0.000164309
-7.53929e-07
0.000164301
-7.96707e-07
0.000164289
-8.40718e-07
0.000164274
-8.85889e-07
0.000164255
-9.32127e-07
0.000164232
-9.79325e-07
0.000164204
-1.02736e-06
0.000164172
-1.07611e-06
0.000164136
-1.12541e-06
-1.17506e-06
0.000164094
0.000168701
-2.01846e-08
0.000168707
-4.73407e-08
0.000168713
-7.80552e-08
0.000168721
-1.12227e-07
0.000168731
-1.47533e-07
0.000168744
-1.82141e-07
0.00016876
-2.1509e-07
0.000168779
-2.46252e-07
0.000168798
-2.75911e-07
0.000168818
-3.04454e-07
0.000168838
-3.32279e-07
0.000168858
-3.59766e-07
0.000168876
-3.87251e-07
0.000168893
-4.15018e-07
0.000168907
-4.43303e-07
0.00016892
-4.72299e-07
0.000168931
-5.02158e-07
0.000168938
-5.32999e-07
0.000168943
-5.64909e-07
0.000168945
-5.9795e-07
0.000168944
-6.3216e-07
0.000168939
-6.67555e-07
0.000168931
-7.04129e-07
0.000168919
-7.4186e-07
0.000168903
-7.80706e-07
0.000168882
-8.2061e-07
0.000168858
-8.61498e-07
0.000168829
-9.03278e-07
0.000168796
-9.45849e-07
0.000168757
-9.89091e-07
0.000168714
-1.03287e-06
0.000168666
-1.07707e-06
-1.12147e-06
0.000168612
0.000173492
-9.40974e-10
0.000173484
-3.95514e-08
0.00017349
-8.38227e-08
0.000173507
-1.28833e-07
0.000173529
-1.69675e-07
0.000173553
-2.06586e-07
0.000173578
-2.40062e-07
0.000173603
-2.70777e-07
0.000173626
-2.99388e-07
0.000173648
-3.26454e-07
0.000173668
-3.52489e-07
0.000173687
-3.77941e-07
0.000173703
-4.03178e-07
0.000173716
-4.28503e-07
0.000173727
-4.54161e-07
0.000173735
-4.80348e-07
0.00017374
-5.07222e-07
0.000173742
-5.34899e-07
0.00017374
-5.6347e-07
0.000173735
-5.92996e-07
0.000173727
-6.23515e-07
0.000173714
-6.55044e-07
0.000173698
-6.87579e-07
0.000173677
-7.21098e-07
0.000173652
-7.55563e-07
0.000173622
-7.9092e-07
0.000173588
-8.27098e-07
0.000173549
-8.64016e-07
0.000173504
-9.01576e-07
0.000173455
-9.39673e-07
0.0001734
-9.78189e-07
0.00017334
-1.01701e-06
-1.05594e-06
0.000173275
0.000178495
-2.78048e-08
0.000178494
-3.84592e-08
0.000178481
-7.03658e-08
0.00017847
-1.18264e-07
0.000178469
-1.67891e-07
0.000178476
-2.13889e-07
0.000178489
-2.5363e-07
0.000178507
-2.88173e-07
0.000178526
-3.18784e-07
0.000178546
-3.46434e-07
0.000178566
-3.71964e-07
0.000178584
-3.96074e-07
0.0001786
-4.19328e-07
0.000178614
-4.42168e-07
0.000178624
-4.64942e-07
0.000178632
-4.8792e-07
0.000178636
-5.11307e-07
0.000178636
-5.3526e-07
0.000178633
-5.59891e-07
0.000178625
-5.85281e-07
0.000178613
-6.1148e-07
0.000178597
-6.38514e-07
0.000178575
-6.66389e-07
0.000178549
-6.95089e-07
0.000178518
-7.24583e-07
0.000178482
-7.54824e-07
0.000178441
-7.8575e-07
0.000178394
-8.17286e-07
0.000178342
-8.49348e-07
0.000178284
-8.8184e-07
0.000178221
-9.14654e-07
0.000178151
-9.47683e-07
-9.80776e-07
0.000178076
0.000183487
5.23631e-08
0.000183465
-1.66504e-08
0.000183499
-1.04312e-07
0.000183542
-1.61055e-07
0.000183585
-2.10372e-07
0.000183621
-2.50097e-07
0.000183651
-2.84159e-07
0.000183677
-3.14175e-07
0.000183699
-3.40837e-07
0.000183718
-3.64962e-07
0.000183733
-3.87283e-07
0.000183746
-4.0836e-07
0.000183755
-4.28635e-07
0.000183761
-4.48462e-07
0.000183764
-4.68127e-07
0.000183764
-4.87853e-07
0.000183761
-5.07816e-07
0.000183754
-5.28152e-07
0.000183743
-5.48965e-07
0.000183728
-5.7033e-07
0.000183709
-5.92297e-07
0.000183685
-6.14896e-07
0.000183657
-6.38139e-07
0.000183624
-6.6202e-07
0.000183586
-6.86519e-07
0.000183542
-7.11601e-07
0.000183494
-7.37221e-07
0.00018344
-7.63321e-07
0.00018338
-7.89834e-07
0.000183315
-8.16684e-07
0.000183244
-8.4379e-07
0.000183168
-8.71069e-07
-8.98384e-07
0.000183085
0.000188859
5.1878e-09
0.00018879
5.2135e-08
0.000188699
-1.26352e-08
0.00018863
-9.27572e-08
0.000188608
-1.8833e-07
0.000188615
-2.56408e-07
0.000188637
-3.06531e-07
0.000188667
-3.44593e-07
0.000188701
-3.74921e-07
0.000188737
-4.00058e-07
0.000188771
-4.21609e-07
0.000188803
-4.40715e-07