/*--------------------------------*- C++ -*----------------------------------*\
| =========                 |                                                 |
| \\      /  F ield         | OpenFOAM: The Open Source CFD Toolbox           |
|  \\    /   O peration     | Version:  2.1.1                                 |
|   \\  /    A nd           | Web:      www.OpenFOAM.org                      |
|    \\/     M anipulation  |                                                 |
\*---------------------------------------------------------------------------*/
FoamFile
{
    version     2.0;
    format      ascii;
    class       volVectorField;
    location    "0.035";
    object      U;
}
// * * * * * * * * * * * * * * * * * * * * * * * * * * * * * * * * * * * * * //

dimensions      [0 1 -1 0 0 0 0];

internalField   nonuniform List<vector> 
6820
(
(8.34337 -0.360085 0)
(8.4012 -0.247203 0)
(8.35644 -0.115357 0)
(8.24853 -0.0366566 0)
(8.12062 0.0058589 0)
(7.98789 0.0276594 0)
(7.85666 0.0383622 0)
(7.73032 0.0429932 0)
(7.6103 0.0441945 0)
(7.49714 0.043423 0)
(7.39108 0.0415207 0)
(7.29215 0.0389927 0)
(7.20023 0.0361509 0)
(7.11509 0.033192 0)
(7.03645 0.0302411 0)
(6.96396 0.0273777 0)
(6.89726 0.0246518 0)
(6.83595 0.022094 0)
(6.77962 0.0197223 0)
(6.72787 0.0175475 0)
(6.68029 0.0155768 0)
(6.63643 0.0138167 0)
(6.59588 0.0122762 0)
(6.55815 0.0109697 0)
(6.52276 0.00992144 0)
(6.48914 0.00917167 0)
(6.45663 0.00878339 0)
(6.42437 0.00887539 0)
(6.39132 0.00961005 0)
(6.35588 0.0114118 0)
(6.31529 0.0150555 0)
(6.26684 0.0209809 0)
(6.19641 0.043512 0)
(8.32139 0.166232 0)
(8.2871 0.189939 0)
(8.28548 0.132053 0)
(8.3175 0.0956546 0)
(8.36187 0.0747474 0)
(8.40205 0.0620158 0)
(8.43331 0.0544528 0)
(8.45562 0.0498382 0)
(8.46983 0.0468312 0)
(8.47698 0.0447196 0)
(8.4781 0.0431101 0)
(8.47415 0.0417665 0)
(8.46594 0.0405516 0)
(8.45422 0.0393909 0)
(8.43961 0.0382468 0)
(8.42269 0.0371043 0)
(8.40392 0.0359621 0)
(8.38371 0.0348275 0)
(8.3624 0.0337133 0)
(8.34029 0.0326365 0)
(8.3176 0.0316182 0)
(8.29453 0.0306843 0)
(8.27121 0.0298677 0)
(8.24776 0.0292106 0)
(8.22422 0.0287705 0)
(8.20061 0.0286267 0)
(8.17694 0.0288951 0)
(8.15308 0.0297542 0)
(8.12915 0.0314594 0)
(8.1045 0.0345791 0)
(8.08127 0.039574 0)
(8.05441 0.0491404 0)
(8.04722 0.0631588 0)
(8.32251 -0.0609062 0)
(8.31403 -0.0833566 0)
(8.33067 -0.0542221 0)
(8.34465 -0.0204885 0)
(8.35375 0.00213905 0)
(8.36304 0.0161712 0)
(8.37308 0.025306 0)
(8.38346 0.0314087 0)
(8.39372 0.0355034 0)
(8.40344 0.0382359 0)
(8.4124 0.0400015 0)
(8.42047 0.0410453 0)
(8.42757 0.0415427 0)
(8.43369 0.0416275 0)
(8.43886 0.0414025 0)
(8.44311 0.0409486 0)
(8.44648 0.040331 0)
(8.44903 0.039604 0)
(8.45081 0.0388145 0)
(8.45187 0.0380049 0)
(8.45226 0.0372158 0)
(8.45202 0.0364895 0)
(8.45116 0.0358728 0)
(8.44969 0.0354214 0)
(8.44761 0.0352063 0)
(8.44488 0.0353194 0)
(8.44146 0.0358946 0)
(8.43724 0.0370972 0)
(8.43221 0.0392471 0)
(8.42609 0.0425276 0)
(8.41939 0.0480986 0)
(8.41095 0.054368 0)
(8.40406 0.0678718 0)
(8.33365 0.0145286 0)
(8.32984 0.0475777 0)
(8.32757 0.0537436 0)
(8.32907 0.0462685 0)
(8.33519 0.0406692 0)
(8.34302 0.0380461 0)
(8.35089 0.0371062 0)
(8.35854 0.0369209 0)
(8.36601 0.0369886 0)
(8.37328 0.0370891 0)
(8.38031 0.0371246 0)
(8.38708 0.0370554 0)
(8.39357 0.0368744 0)
(8.39977 0.036588 0)
(8.40565 0.0362088 0)
(8.41122 0.0357533 0)
(8.41647 0.035241 0)
(8.42141 0.034694 0)
(8.42603 0.0341367 0)
(8.43034 0.0335965 0)
(8.43433 0.0331054 0)
(8.43799 0.0327016 0)
(8.44132 0.0324323 0)
(8.4443 0.0323572 0)
(8.44688 0.032555 0)
(8.44905 0.0331293 0)
(8.45074 0.0342246 0)
(8.4519 0.0360277 0)
(8.45254 0.0388275 0)
(8.45251 0.0429243 0)
(8.45226 0.0489624 0)
(8.45124 0.0570077 0)
(8.45145 0.0690205 0)
(8.3302 -0.00535103 0)
(8.32727 -0.0076312 0)
(8.33156 -0.00271138 0)
(8.33644 0.00764705 0)
(8.34076 0.0166957 0)
(8.34524 0.0227745 0)
(8.35002 0.0268055 0)
(8.35511 0.0296004 0)
(8.36044 0.0315615 0)
(8.36588 0.0329221 0)
(8.37135 0.0338289 0)
(8.37679 0.0343783 0)
(8.38218 0.0346395 0)
(8.38749 0.0346677 0)
(8.39269 0.03451 0)
(8.39778 0.0342086 0)
(8.40274 0.0338019 0)
(8.40756 0.0333268 0)
(8.41225 0.032819 0)
(8.41678 0.0323156 0)
(8.42116 0.0318566 0)
(8.42536 0.0314876 0)
(8.42937 0.0312626 0)
(8.43318 0.031248 0)
(8.43675 0.0315284 0)
(8.44005 0.0322118 0)
(8.44307 0.0334437 0)
(8.44578 0.0354035 0)
(8.4482 0.0383587 0)
(8.45034 0.0425579 0)
(8.45247 0.0485447 0)
(8.45454 0.0563126 0)
(8.45749 0.0672532 0)
(8.33239 0.00222478 0)
(8.33124 0.0131456 0)
(8.33298 0.0201164 0)
(8.33587 0.0233548 0)
(8.33957 0.025342 0)
(8.34393 0.0269717 0)
(8.34854 0.0284574 0)
(8.35323 0.029747 0)
(8.35799 0.0307596 0)
(8.36279 0.0314844 0)
(8.3676 0.0319447 0)
(8.37242 0.0321704 0)
(8.37722 0.0321932 0)
(8.382 0.0320461 0)
(8.38674 0.0317614 0)
(8.39143 0.0313703 0)
(8.39606 0.0309034 0)
(8.40063 0.0303915 0)
(8.40514 0.0298663 0)
(8.40957 0.0293626 0)
(8.41392 0.0289192 0)
(8.41817 0.0285815 0)
(8.42233 0.0284043 0)
(8.42637 0.0284549 0)
(8.43028 0.0288186 0)
(8.43405 0.0296022 0)
(8.43769 0.0309453 0)
(8.4412 0.0330173 0)
(8.44465 0.0360491 0)
(8.4481 0.0402737 0)
(8.4518 0.0460759 0)
(8.4559 0.0536024 0)
(8.46098 0.0635611 0)
(8.33233 0.000799074 0)
(8.33158 0.00555504 0)
(8.33359 0.0103771 0)
(8.33682 0.0150102 0)
(8.34047 0.0192158 0)
(8.34444 0.0225284 0)
(8.34856 0.0249943 0)
(8.35277 0.0268091 0)
(8.35708 0.0281102 0)
(8.36145 0.029001 0)
(8.36586 0.0295601 0)
(8.37029 0.029846 0)
(8.37473 0.0299051 0)
(8.37916 0.0297782 0)
(8.38359 0.0295017 0)
(8.388 0.0291096 0)
(8.39239 0.0286346 0)
(8.39675 0.0281095 0)
(8.40109 0.027568 0)
(8.4054 0.0270464 0)
(8.40968 0.0265855 0)
(8.41392 0.0262321 0)
(8.41812 0.026042 0)
(8.42228 0.0260826 0)
(8.42639 0.0264372 0)
(8.43048 0.027208 0)
(8.43455 0.0285232 0)
(8.43866 0.0305346 0)
(8.44289 0.0334355 0)
(8.44736 0.0374223 0)
(8.45229 0.0427722 0)
(8.45794 0.0496358 0)
(8.46472 0.0583861 0)
(8.33273 0.00163557 0)
(8.33261 0.00704824 0)
(8.33435 0.0121636 0)
(8.33712 0.0162294 0)
(8.34039 0.0194635 0)
(8.34408 0.021954 0)
(8.34801 0.0238638 0)
(8.35206 0.0253259 0)
(8.35618 0.0264001 0)
(8.36036 0.0271336 0)
(8.36456 0.0275737 0)
(8.36878 0.0277633 0)
(8.37302 0.0277406 0)
(8.37725 0.0275413 0)
(8.38149 0.0271991 0)
(8.38573 0.0267461 0)
(8.38996 0.0262138 0)
(8.3942 0.025634 0)
(8.39843 0.0250399 0)
(8.40267 0.0244674 0)
(8.40691 0.0239567 0)
(8.41115 0.0235538 0)
(8.4154 0.023313 0)
(8.41967 0.0232989 0)
(8.42398 0.0235897 0)
(8.42835 0.0242789 0)
(8.43281 0.0254793 0)
(8.43745 0.0273213 0)
(8.44235 0.02996 0)
(8.44768 0.0335518 0)
(8.45364 0.0382871 0)
(8.46052 0.0442866 0)
(8.46866 0.051723 0)
(8.33285 0.00169863 0)
(8.33299 0.00617631 0)
(8.3346 0.0104846 0)
(8.3372 0.0141516 0)
(8.3403 0.0172773 0)
(8.34379 0.019812 0)
(8.34752 0.021781 0)
(8.35138 0.0232673 0)
(8.35533 0.024337 0)
(8.35934 0.025049 0)
(8.36339 0.0254585 0)
(8.36747 0.0256121 0)
(8.37156 0.0255503 0)
(8.37567 0.0253092 0)
(8.37979 0.0249227 0)
(8.38392 0.0244226 0)
(8.38806 0.02384 0)
(8.39222 0.0232065 0)
(8.3964 0.0225549 0)
(8.4006 0.0219203 0)
(8.40483 0.0213421 0)
(8.4091 0.0208646 0)
(8.41343 0.0205394 0)
(8.41783 0.0204265 0)
(8.42233 0.0205965 0)
(8.42697 0.0211319 0)
(8.4318 0.0221279 0)
(8.43691 0.023691 0)
(8.44241 0.0259396 0)
(8.44847 0.0289887 0)
(8.45528 0.0329593 0)
(8.46315 0.0379255 0)
(8.47233 0.043938 0)
(8.33294 0.0017287 0)
(8.33328 0.00581935 0)
(8.3348 0.00979843 0)
(8.33718 0.0132132 0)
(8.34006 0.0160785 0)
(8.34333 0.0183825 0)
(8.34687 0.0201646 0)
(8.35056 0.0215037 0)
(8.35436 0.0224602 0)
(8.35824 0.0230829 0)
(8.36217 0.0234175 0)
(8.36614 0.0235046 0)
(8.37013 0.0233806 0)
(8.37415 0.023079 0)
(8.37818 0.0226316 0)
(8.38224 0.0220689 0)
(8.38632 0.0214207 0)
(8.39043 0.0207173 0)
(8.39458 0.0199903 0)
(8.39878 0.0192735 0)
(8.40303 0.018604 0)
(8.40736 0.0180232 0)
(8.41177 0.0175784 0)
(8.41631 0.0173234 0)
(8.421 0.0173196 0)
(8.4259 0.0176364 0)
(8.43107 0.0183506 0)
(8.43661 0.019544 0)
(8.44263 0.0213011 0)
(8.4493 0.0236979 0)
(8.4568 0.0268001 0)
(8.46541 0.0306358 0)
(8.47535 0.0351805 0)
(8.33299 0.00167997 0)
(8.33343 0.00535552 0)
(8.33486 0.00890658 0)
(8.33706 0.0119937 0)
(8.33976 0.0146065 0)
(8.34283 0.0167358 0)
(8.34618 0.0183976 0)
(8.34971 0.0196436 0)
(8.35337 0.0205217 0)
(8.35711 0.0210749 0)
(8.36092 0.0213451 0)
(8.36478 0.0213705 0)
(8.36868 0.0211856 0)
(8.37261 0.0208227 0)
(8.37657 0.0203117 0)
(8.38057 0.0196817 0)
(8.3846 0.0189613 0)
(8.38868 0.0181791 0)
(8.39282 0.0173649 0)
(8.39702 0.0165503 0)
(8.4013 0.0157695 0)
(8.40568 0.0150602 0)
(8.41019 0.0144642 0)
(8.41487 0.0140278 0)
(8.41974 0.0138023 0)
(8.42488 0.013843 0)
(8.43035 0.0142083 0)
(8.43625 0.0149563 0)
(8.4427 0.0161412 0)
(8.44985 0.0178045 0)
(8.45788 0.0199687 0)
(8.46702 0.0226229 0)
(8.47744 0.0256972 0)
(8.33302 0.00159009 0)
(8.33352 0.00491479 0)
(8.33486 0.00810993 0)
(8.3369 0.0109158 0)
(8.33942 0.0132946 0)
(8.34231 0.0152349 0)
(8.34548 0.0167457 0)
(8.34885 0.0178666 0)
(8.35235 0.0186393 0)
(8.35596 0.019102 0)
(8.35965 0.0192915 0)
(8.3634 0.0192421 0)
(8.3672 0.0189853 0)
(8.37104 0.0185506 0)
(8.37493 0.017966 0)
(8.37887 0.0172583 0)
(8.38286 0.0164541 0)
(8.38691 0.0155801 0)
(8.39103 0.0146637 0)
(8.39523 0.0137335 0)
(8.39954 0.0128203 0)
(8.40398 0.0119568 0)
(8.40857 0.0111786 0)
(8.41336 0.010524 0)
(8.41839 0.0100333 0)
(8.42373 0.00974798 0)
(8.42944 0.00970876 0)
(8.43563 0.0099521 0)
(8.44241 0.010506 0)
(8.44991 0.0113832 0)
(8.45829 0.0125738 0)
(8.46776 0.0140368 0)
(8.47843 0.0156774 0)
(8.33303 0.00147608 0)
(8.33355 0.0044742 0)
(8.33481 0.00733162 0)
(8.33671 0.00985436 0)
(8.33907 0.0119957 0)
(8.34179 0.0137434 0)
(8.34479 0.0151011 0)
(8.34799 0.0160964 0)
(8.35135 0.0167627 0)
(8.35482 0.0171322 0)
(8.35838 0.017237 0)
(8.36202 0.0171077 0)
(8.36572 0.016773 0)
(8.36948 0.0162598 0)
(8.37329 0.0155937 0)
(8.37716 0.0147997 0)
(8.38109 0.0139018 0)
(8.3851 0.0129244 0)
(8.3892 0.0118919 0)
(8.3934 0.0108297 0)
(8.39772 0.00976426 0)
(8.40219 0.00872317 0)
(8.40685 0.00773528 0)
(8.41173 0.00683024 0)
(8.41688 0.00603772 0)
(8.42236 0.00538588 0)
(8.42826 0.00489924 0)
(8.43465 0.00459534 0)
(8.44164 0.00448061 0)
(8.44936 0.0045449 0)
(8.45794 0.00475479 0)
(8.46753 0.00504915 0)
(8.47824 0.00532148 0)
(8.33304 0.00134958 0)
(8.33355 0.00404171 0)
(8.33475 0.00658726 0)
(8.33652 0.00884086 0)
(8.33872 0.010753 0)
(8.34128 0.0123087 0)
(8.34412 0.0135075 0)
(8.34716 0.0143688 0)
(8.35037 0.0149192 0)
(8.35371 0.0151861 0)
(8.35714 0.0151972 0)
(8.36066 0.0149794 0)
(8.36426 0.0145584 0)
(8.36792 0.0139582 0)
(8.37165 0.0132021 0)
(8.37544 0.0123121 0)
(8.37932 0.0113101 0)
(8.38328 0.0102174 0)
(8.38733 0.00905526 0)
(8.39151 0.00784533 0)
(8.39583 0.00660944 0)
(8.40031 0.00536963 0)
(8.405 0.00414788 0)
(8.40993 0.00296538 0)
(8.41516 0.00184156 0)
(8.42073 0.000792404 0)
(8.42673 -0.000171748 0)
(8.43324 -0.0010492 0)
(8.44034 -0.00185062 0)
(8.44814 -0.00260317 0)
(8.45675 -0.003356 0)
(8.4663 -0.00418248 0)
(8.47685 -0.00519129 0)
(8.33304 0.00121766 0)
(8.33354 0.00361829 0)
(8.33467 0.00587045 0)
(8.33632 0.0078635 0)
(8.33839 0.00954978 0)
(8.34079 0.0109125 0)
(8.34348 0.0119486 0)
(8.34637 0.0126709 0)
(8.34944 0.0131 0)
(8.35263 0.0132586 0)
(8.35594 0.01317 0)
(8.35934 0.0128575 0)
(8.36283 0.0123435 0)
(8.36639 0.0116495 0)
(8.37002 0.0107956 0)
(8.37373 0.00980154 0)
(8.37753 0.00868606 0)
(8.38143 0.0074675 0)
(8.38544 0.00616375 0)
(8.38957 0.00479238 0)
(8.39386 0.00337048 0)
(8.39833 0.00191444 0)
(8.40302 0.000439462 0)
(8.40796 -0.00104124 0)
(8.41321 -0.00251762 0)
(8.41881 -0.00398438 0)
(8.42484 -0.0054431 0)
(8.43136 -0.00690476 0)
(8.43846 -0.00839281 0)
(8.44622 -0.00994622 0)
(8.45472 -0.0116236 0)
(8.46407 -0.0135039 0)
(8.47431 -0.0156919 0)
(8.33304 0.00108454 0)
(8.33352 0.00320564 0)
(8.33458 0.00518037 0)
(8.33613 0.00692247 0)
(8.33806 0.00838807 0)
(8.34033 0.00955903 0)
(8.34287 0.0104302 0)
(8.34562 0.0110093 0)
(8.34854 0.0113119 0)
(8.3516 0.0113563 0)
(8.35478 0.0111618 0)
(8.35806 0.0107484 0)
(8.36143 0.0101351 0)
(8.36488 0.00934045 0)
(8.36841 0.00838187 0)
(8.37204 0.00727604 0)
(8.37575 0.00603882 0)
(8.37957 0.00468527 0)
(8.38351 0.00322972 0)
(8.38758 0.00168557 0)
(8.39182 6.5192e-05 0)
(8.39624 -0.00162053 0)
(8.40089 -0.00336279 0)
(8.4058 -0.00515567 0)
(8.41101 -0.00699734 0)
(8.41658 -0.00889153 0)
(8.42256 -0.0108494 0)
(8.42901 -0.0128915 0)
(8.436 -0.0150502 0)
(8.4436 -0.0173718 0)
(8.45187 -0.0199194 0)
(8.46089 -0.0227726 0)
(8.47067 -0.0260282 0)
(8.33304 0.000952718 0)
(8.3335 0.00280467 0)
(8.33449 0.00451525 0)
(8.33594 0.00601507 0)
(8.33776 0.00726465 0)
(8.33989 0.00824522 0)
(8.34229 0.00894988 0)
(8.3449 0.00938267 0)
(8.34768 0.00955471 0)
(8.35061 0.00948028 0)
(8.35366 0.00917517 0)
(8.35681 0.00865567 0)
(8.36006 0.00793783 0)
(8.3634 0.00703706 0)
(8.36683 0.00596794 0)
(8.37035 0.00474418 0)
(8.37396 0.00337856 0)
(8.37769 0.00188283 0)
(8.38154 0.000267648 0)
(8.38553 -0.00145761 0)
(8.38969 -0.00328518 0)
(8.39404 -0.00520935 0)
(8.39861 -0.00722709 0)
(8.40344 -0.00933892 0)
(8.40856 -0.0115499 0)
(8.41403 -0.0138712 0)
(8.41988 -0.016321 0)
(8.42618 -0.0189267 0)
(8.43297 -0.0217264 0)
(8.4403 -0.0247699 0)
(8.44823 -0.0281209 0)
(8.45681 -0.0318561 0)
(8.46603 -0.0360624 0)
(8.33304 0.000823594 0)
(8.33347 0.00241597 0)
(8.33441 0.00387387 0)
(8.33576 0.00513968 0)
(8.33747 0.00617819 0)
(8.33948 0.0069705 0)
(8.34174 0.00750834 0)
(8.34422 0.00779278 0)
(8.34687 0.00783122 0)
(8.34966 0.00763436 0)
(8.35258 0.00721455 0)
(8.35561 0.00658483 0)
(8.35873 0.00575812 0)
(8.36195 0.00474686 0)
(8.36526 0.00356269 0)
(8.36867 0.00221633 0)
(8.37217 0.000717456 0)
(8.37579 -0.000925468 0)
(8.37953 -0.00270535 0)
(8.38342 -0.00461672 0)
(8.38747 -0.00665609 0)
(8.39171 -0.00882244 0)
(8.39616 -0.0111178 0)
(8.40086 -0.0135482 0)
(8.40584 -0.0161242 0)
(8.41115 -0.0188625 0)
(8.41681 -0.0217864 0)
(8.42287 -0.0249277 0)
(8.42937 -0.0283272 0)
(8.43636 -0.0320354 0)
(8.44385 -0.0361139 0)
(8.45188 -0.0406341 0)
(8.46045 -0.0456716 0)
(8.33304 0.000697921 0)
(8.33345 0.00203975 0)
(8.33432 0.00325513 0)
(8.3356 0.00429475 0)
(8.3372 0.00512718 0)
(8.33909 0.00573377 0)
(8.34123 0.00610522 0)
(8.34357 0.00624019 0)
(8.34609 0.006143 0)
(8.34875 0.00582112 0)
(8.35154 0.00528375 0)
(8.35444 0.00454079 0)
(8.35743 0.00360218 0)
(8.36053 0.00247742 0)
(8.36371 0.00117525 0)
(8.36699 -0.000296559 0)
(8.37037 -0.00193139 0)
(8.37387 -0.00372396 0)
(8.37748 -0.00567057 0)
(8.38124 -0.00776937 0)
(8.38515 -0.0100208 0)
(8.38924 -0.0124278 0)
(8.39354 -0.0149969 0)
(8.39807 -0.0177383 0)
(8.40286 -0.020667 0)
(8.40794 -0.0238034 0)
(8.41334 -0.0271743 0)
(8.4191 -0.0308134 0)
(8.42524 -0.0347621 0)
(8.43179 -0.0390696 0)
(8.43877 -0.0437933 0)
(8.44619 -0.0489979 0)
(8.45404 -0.0547475 0)
(8.33304 0.000576071 0)
(8.33342 0.00167608 0)
(8.33424 0.00265813 0)
(8.33544 0.00347902 0)
(8.33694 0.00411051 0)
(8.33872 0.00453447 0)
(8.34074 0.0047408 0)
(8.34296 0.00472628 0)
(8.34535 0.00449257 0)
(8.34788 0.00404432 0)
(8.35053 0.00338778 0)
(8.3533 0.00252995 0)
(8.35616 0.0014779 0)
(8.35912 0.000238286 0)
(8.36217 -0.00118299 0)
(8.36531 -0.002781 0)
(8.36856 -0.00455204 0)
(8.37191 -0.00649386 0)
(8.37538 -0.00860589 0)
(8.37897 -0.0108896 0)
(8.38272 -0.0133486 0)
(8.38664 -0.0159897 0)
(8.39074 -0.0188226 0)
(8.39505 -0.0218608 0)
(8.3996 -0.0251224 0)
(8.40441 -0.0286302 0)
(8.40949 -0.0324127 0)
(8.41488 -0.0365038 0)
(8.4206 -0.040944 0)
(8.42665 -0.0457794 0)
(8.43305 -0.051062 0)
(8.4398 -0.0568491 0)
(8.44688 -0.0631937 0)
(8.33303 0.000458204 0)
(8.33339 0.00132485 0)
(8.33417 0.00208213 0)
(8.33529 0.00269144 0)
(8.3367 0.00312721 0)
(8.33837 0.00337199 0)
(8.34028 0.00341511 0)
(8.34237 0.00325184 0)
(8.34463 0.00288163 0)
(8.34703 0.00230661 0)
(8.34956 0.0015304 0)
(8.35219 0.000557275 0)
(8.35491 -0.000608392 0)
(8.35773 -0.00196265 0)
(8.36064 -0.00350228 0)
(8.36363 -0.00522507 0)
(8.36672 -0.00713005 0)
(8.36991 -0.00921775 0)
(8.37321 -0.0114904 0)
(8.37663 -0.0139524 0)
(8.38019 -0.0166103 0)
(8.38389 -0.0194734 0)
(8.38777 -0.0225543 0)
(8.39182 -0.0258687 0)
(8.39608 -0.0294367 0)
(8.40056 -0.0332823 0)
(8.40528 -0.0374339 0)
(8.41025 -0.041925 0)
(8.41548 -0.0467934 0)
(8.42099 -0.0520811 0)
(8.42676 -0.0578343 0)
(8.4328 -0.0641024 0)
(8.43908 -0.070928 0)
(8.33303 0.000344364 0)
(8.33337 0.000985925 0)
(8.33409 0.00152657 0)
(8.33514 0.0019313 0)
(8.33647 0.00217687 0)
(8.33805 0.00224657 0)
(8.33984 0.00212945 0)
(8.34181 0.00181953 0)
(8.34395 0.00131443 0)
(8.34622 0.000614027 0)
(8.34861 -0.000280475 0)
(8.3511 -0.00136729 0)
(8.35369 -0.00264461 0)
(8.35636 -0.00411102 0)
(8.35911 -0.00576582 0)
(8.36195 -0.00760931 0)
(8.36487 -0.00964305 0)
(8.36788 -0.01187 0)
(8.37099 -0.014295 0)
(8.37421 -0.0169247 0)
(8.37755 -0.019768 0)
(8.38101 -0.0228364 0)
(8.38462 -0.0261442 0)
(8.38838 -0.0297088 0)
(8.39232 -0.0335509 0)
(8.39643 -0.0376947 0)
(8.40073 -0.0421679 0)
(8.40524 -0.047002 0)
(8.40995 -0.0522315 0)
(8.41486 -0.0578939 0)
(8.41996 -0.0640291 0)
(8.42526 -0.0706787 0)
(8.43072 -0.077876 0)
(8.33303 0.000234544 0)
(8.33335 0.000659129 0)
(8.33403 0.00099087 0)
(8.33501 0.00119767 0)
(8.33625 0.00125823 0)
(8.33773 0.00115671 0)
(8.33942 0.000882049 0)
(8.34128 0.000427414 0)
(8.34329 -0.00021106 0)
(8.34544 -0.00103537 0)
(8.34769 -0.00204643 0)
(8.35004 -0.00324472 0)
(8.35248 -0.00463072 0)
(8.355 -0.00620538 0)
(8.35759 -0.00797031 0)
(8.36025 -0.00992815 0)
(8.36299 -0.0120827 0)
(8.36581 -0.0144391 0)
(8.36872 -0.0170043 0)
(8.37171 -0.0197869 0)
(8.3748 -0.0227977 0)
(8.378 -0.0260495 0)
(8.38131 -0.029558 0)
(8.38475 -0.033341 0)
(8.38832 -0.0374194 0)
(8.39203 -0.0418166 0)
(8.39588 -0.046559 0)
(8.39989 -0.0516751 0)
(8.40403 -0.0571959 0)
(8.40832 -0.0631539 0)
(8.41274 -0.0695827 0)
(8.41728 -0.0765168 0)
(8.4219 -0.0839811 0)
(8.33303 0.00012874 0)
(8.33332 0.000344471 0)
(8.33396 0.000475162 0)
(8.33488 0.000491297 0)
(8.33605 0.000373461 0)
(8.33743 0.000106821 0)
(8.33902 -0.000319627 0)
(8.34077 -0.000913464 0)
(8.34266 -0.00167991 0)
(8.34467 -0.00262271 0)
(8.34679 -0.00374477 0)
(8.349 -0.00504863 0)
(8.35129 -0.00653694 0)
(8.35365 -0.00821276 0)
(8.35607 -0.0100798 0)
(8.35855 -0.0121427 0)
(8.3611 -0.0144072 0)
(8.36371 -0.0168803 0)
(8.36639 -0.0195706 0)
(8.36914 -0.0224883 0)
(8.37196 -0.0256452 0)
(8.37486 -0.0290552 0)
(8.37786 -0.0327344 0)
(8.38094 -0.0367007 0)
(8.38412 -0.0409743 0)
(8.3874 -0.0455773 0)
(8.39077 -0.0505339 0)
(8.39425 -0.0558697 0)
(8.39781 -0.0616115 0)
(8.40146 -0.067787 0)
(8.40517 -0.0744238 0)
(8.40894 -0.0815498 0)
(8.41273 -0.0891825 0)
(8.33303 2.68982e-05 0)
(8.3333 4.14917e-05 0)
(8.3339 -2.22338e-05 0)
(8.33476 -0.000191889 0)
(8.33585 -0.000485159 0)
(8.33715 -0.000915556 0)
(8.33864 -0.00149342 0)
(8.34028 -0.00222637 0)
(8.34205 -0.00312032 0)
(8.34394 -0.00418023 0)
(8.34593 -0.00541056 0)
(8.34799 -0.0068157 0)
(8.35012 -0.00840026 0)
(8.35231 -0.0101692 0)
(8.35456 -0.0121284 0)
(8.35685 -0.0142841 0)
(8.35919 -0.0166439 0)
(8.36158 -0.0192165 0)
(8.36402 -0.0220117 0)
(8.3665 -0.0250409 0)
(8.36904 -0.0283168 0)
(8.37163 -0.0318537 0)
(8.37428 -0.0356677 0)
(8.37698 -0.0397762 0)
(8.37975 -0.0441983 0)
(8.38257 -0.0489545 0)
(8.38544 -0.0540662 0)
(8.38837 -0.0595559 0)
(8.39133 -0.0654465 0)
(8.39432 -0.0717608 0)
(8.39733 -0.078521 0)
(8.40033 -0.0857489 0)
(8.40331 -0.0934557 0)
(8.33302 -7.07362e-05 0)
(8.33328 -0.000248148 0)
(8.33383 -0.000496153 0)
(8.33464 -0.000840029 0)
(8.33566 -0.00129556 0)
(8.33687 -0.00187533 0)
(8.33826 -0.00258977 0)
(8.3398 -0.00344727 0)
(8.34146 -0.00445492 0)
(8.34323 -0.00561909 0)
(8.34508 -0.00694578 0)
(8.347 -0.00844097 0)
(8.34897 -0.0101108 0)
(8.35099 -0.0119619 0)
(8.35306 -0.0140014 0)
(8.35515 -0.0162372 0)
(8.35728 -0.018678 0)
(8.35944 -0.0213335 0)
(8.36162 -0.0242146 0)
(8.36383 -0.0273331 0)
(8.36606 -0.0307022 0)
(8.36832 -0.0343361 0)
(8.37061 -0.0382504 0)
(8.37291 -0.0424616 0)
(8.37525 -0.0469873 0)
(8.37759 -0.051846 0)
(8.37995 -0.0570564 0)
(8.38232 -0.0626378 0)
(8.38468 -0.0686091 0)
(8.38701 -0.0749886 0)
(8.38931 -0.0817937 0)
(8.39156 -0.0890409 0)
(8.39373 -0.0967362 0)
(8.33302 -0.000164634 0)
(8.33326 -0.000529353 0)
(8.33378 -0.000962905 0)
(8.33453 -0.00148932 0)
(8.33548 -0.00212091 0)
(8.33662 -0.00286633 0)
(8.33793 -0.00373297 0)
(8.33936 -0.00472761 0)
(8.34091 -0.00585707 0)
(8.34255 -0.0071285 0)
(8.34427 -0.00854941 0)
(8.34604 -0.0101276 0)
(8.34785 -0.0118712 0)
(8.3497 -0.0137888 0)
(8.35158 -0.0158894 0)
(8.35347 -0.0181825 0)
(8.35537 -0.0206782 0)
(8.35728 -0.0233876 0)
(8.3592 -0.026322 0)
(8.36112 -0.0294941 0)
(8.36303 -0.032917 0)
(8.36495 -0.0366048 0)
(8.36686 -0.0405723 0)
(8.36876 -0.0448349 0)
(8.37065 -0.0494085 0)
(8.37251 -0.0543094 0)
(8.37435 -0.0595536 0)
(8.37615 -0.0651573 0)
(8.3779 -0.0711357 0)
(8.37959 -0.0775031 0)
(8.3812 -0.0842724 0)
(8.3827 -0.0914555 0)
(8.3841 -0.0990541 0)
(8.33302 -0.00025223 0)
(8.33324 -0.000783209 0)
(8.33371 -0.00136918 0)
(8.33439 -0.00203353 0)
(8.33528 -0.00278971 0)
(8.33634 -0.00364867 0)
(8.33756 -0.00462001 0)
(8.3389 -0.00571186 0)
(8.34035 -0.00693171 0)
(8.34188 -0.00828704 0)
(8.34347 -0.0097856 0)
(8.3451 -0.0114355 0)
(8.34676 -0.0132452 0)
(8.34844 -0.0152236 0)
(8.35013 -0.0173804 0)
(8.35181 -0.0197253 0)
(8.35349 -0.0222692 0)
(8.35515 -0.0250229 0)
(8.3568 -0.0279985 0)
(8.35842 -0.031208 0)
(8.36001 -0.0346646 0)
(8.36158 -0.0383815 0)
(8.3631 -0.0423726 0)
(8.36459 -0.0466519 0)
(8.36603 -0.0512336 0)
(8.36741 -0.0561316 0)
(8.36872 -0.0613597 0)
(8.36996 -0.0669308 0)
(8.37111 -0.0728571 0)
(8.37216 -0.0791492 0)
(8.37309 -0.0858165 0)
(8.37388 -0.0928668 0)
(8.37452 -0.100299 0)
(8.33302 -0.000341628 0)
(8.33324 -0.00106899 0)
(8.33368 -0.00187362 0)
(8.33433 -0.0027687 0)
(8.33516 -0.00374965 0)
(8.33615 -0.0048126 0)
(8.33729 -0.00595905 0)
(8.33853 -0.0071947 0)
(8.33987 -0.00852823 0)
(8.34127 -0.00997022 0)
(8.34272 -0.0115322 0)
(8.34421 -0.0132261 0)
(8.3457 -0.015064 0)
(8.3472 -0.0170578 0)
(8.3487 -0.0192197 0)
(8.35017 -0.0215615 0)
(8.35161 -0.0240953 0)
(8.35302 -0.0268334 0)
(8.35439 -0.0297878 0)
(8.35571 -0.0329712 0)
(8.35698 -0.0363961 0)
(8.35818 -0.0400752 0)
(8.35933 -0.0440211 0)
(8.36039 -0.0482466 0)
(8.36138 -0.0527638 0)
(8.36228 -0.0575847 0)
(8.36308 -0.0627203 0)
(8.36376 -0.068181 0)
(8.36433 -0.0739758 0)
(8.36475 -0.0801123 0)
(8.36503 -0.0865964 0)
(8.36514 -0.0934329 0)
(8.36507 -0.100618 0)
(8.33301 -0.000398717 0)
(8.33315 -0.00118741 0)
(8.33351 -0.00200861 0)
(8.33407 -0.00290405 0)
(8.33484 -0.00389287 0)
(8.33578 -0.00498342 0)
(8.33686 -0.00617885 0)
(8.33805 -0.00748051 0)
(8.33933 -0.00889098 0)
(8.34065 -0.010415 0)
(8.34201 -0.012059 0)
(8.34337 -0.0138311 0)
(8.34473 -0.0157405 0)
(8.34607 -0.0177974 0)
(8.34738 -0.0200125 0)
(8.34865 -0.0223968 0)
(8.34987 -0.024962 0)
(8.35102 -0.0277198 0)
(8.35212 -0.0306821 0)
(8.35313 -0.0338609 0)
(8.35407 -0.0372682 0)
(8.35492 -0.0409159 0)
(8.35568 -0.0448158 0)
(8.35633 -0.048979 0)
(8.35687 -0.0534165 0)
(8.35729 -0.0581383 0)
(8.35758 -0.0631535 0)
(8.35772 -0.0684702 0)
(8.35772 -0.0740953 0)
(8.35754 -0.0800339 0)
(8.35719 -0.0862897 0)
(8.35665 -0.0928649 0)
(8.3559 -0.0997537 0)
(8.33304 -0.000542014 0)
(8.33328 -0.00173204 0)
(8.33368 -0.00304309 0)
(8.33423 -0.00442433 0)
(8.33492 -0.005823 0)
(8.33575 -0.00722062 0)
(8.33671 -0.00862268 0)
(8.33777 -0.0100448 0)
(8.3389 -0.0115065 0)
(8.34008 -0.0130287 0)
(8.34129 -0.0146313 0)
(8.3425 -0.0163333 0)
(8.34369 -0.0181521 0)
(8.34485 -0.0201039 0)
(8.34597 -0.0222034 0)
(8.34703 -0.0244647 0)
(8.34801 -0.0269009 0)
(8.34892 -0.0295243 0)
(8.34975 -0.032347 0)
(8.35047 -0.0353805 0)
(8.35109 -0.038636 0)
(8.35159 -0.0421239 0)
(8.35198 -0.0458545 0)
(8.35223 -0.0498373 0)
(8.35234 -0.054081 0)
(8.35231 -0.0585935 0)
(8.35211 -0.0633817 0)
(8.35175 -0.0684513 0)
(8.3512 -0.0738067 0)
(8.35046 -0.0794506 0)
(8.34952 -0.0853843 0)
(8.34837 -0.0916078 0)
(8.34698 -0.0981136 0)
(8.33294 -0.000365447 0)
(8.33284 -0.00100699 0)
(8.33299 -0.00171982 0)
(8.33345 -0.00264189 0)
(8.33417 -0.00378255 0)
(8.33509 -0.00510227 0)
(8.33614 -0.00655861 0)
(8.33728 -0.00812125 0)
(8.33845 -0.00977359 0)
(8.33963 -0.0115091 0)
(8.3408 -0.0133285 0)
(8.34193 -0.0152373 0)
(8.34302 -0.0172443 0)
(8.34404 -0.0193605 0)
(8.34499 -0.0215978 0)
(8.34585 -0.0239687 0)
(8.34661 -0.0264858 0)
(8.34727 -0.0291618 0)
(8.34781 -0.0320088 0)
(8.34823 -0.0350388 0)
(8.34853 -0.0382631 0)
(8.34868 -0.0416925 0)
(8.34868 -0.0453371 0)
(8.34853 -0.0492061 0)
(8.34821 -0.0533078 0)
(8.34772 -0.0576494 0)
(8.34705 -0.0622371 0)
(8.34618 -0.0670755 0)
(8.34511 -0.072168 0)
(8.34382 -0.0775166 0)
(8.34232 -0.0831215 0)
(8.34058 -0.088982 0)
(8.3386 -0.0950903 0)
(8.33316 -0.000986091 0)
(8.33361 -0.00328554 0)
(8.33393 -0.00566986 0)
(8.33422 -0.00785368 0)
(8.33463 -0.00975143 0)
(8.33521 -0.0114145 0)
(8.33595 -0.0129165 0)
(8.33681 -0.0143229 0)
(8.33776 -0.0156899 0)
(8.33875 -0.0170635 0)
(8.33975 -0.0184808 0)
(8.34072 -0.0199717 0)
(8.34166 -0.0215603 0)
(8.34252 -0.023266 0)
(8.34331 -0.0251053 0)
(8.34399 -0.0270921 0)
(8.34457 -0.0292386 0)
(8.34501 -0.0315558 0)
(8.34533 -0.0340535 0)
(8.3455 -0.0367409 0)
(8.34552 -0.0396263 0)
(8.34537 -0.0427174 0)
(8.34505 -0.0460213 0)
(8.34455 -0.049544 0)
(8.34386 -0.0532909 0)
(8.34297 -0.0572665 0)
(8.34187 -0.0614741 0)
(8.34056 -0.065916 0)
(8.33903 -0.0705931 0)
(8.33726 -0.0755052 0)
(8.33525 -0.0806506 0)
(8.33299 -0.0860265 0)
(8.33048 -0.0916244 0)
(8.33265 0.000385951 0)
(8.33178 0.00135794 0)
(8.33165 0.00169128 0)
(8.33226 0.00102251 0)
(8.33325 -0.000378878 0)
(8.3344 -0.00219595 0)
(8.3356 -0.00421953 0)
(8.3368 -0.00633887 0)
(8.33796 -0.00849677 0)
(8.33906 -0.0106654 0)
(8.34008 -0.0128371 0)
(8.341 -0.0150166 0)
(8.34182 -0.0172158 0)
(8.34253 -0.0194499 0)
(8.34312 -0.0217356 0)
(8.34358 -0.0240901 0)
(8.3439 -0.0265298 0)
(8.34407 -0.0290705 0)
(8.34408 -0.031727 0)
(8.34393 -0.0345127 0)
(8.34361 -0.0374401 0)
(8.3431 -0.0405204 0)
(8.34241 -0.0437636 0)
(8.34151 -0.0471782 0)
(8.34041 -0.0507719 0)
(8.3391 -0.0545506 0)
(8.33756 -0.0585192 0)
(8.3358 -0.0626812 0)
(8.3338 -0.0670386 0)
(8.33155 -0.0715921 0)
(8.32905 -0.0763408 0)
(8.3263 -0.0812832 0)
(8.32329 -0.086412 0)
(8.33355 -0.00216989 0)
(8.33447 -0.00755651 0)
(8.33405 -0.0127718 0)
(8.33326 -0.0162583 0)
(8.33291 -0.0184728 0)
(8.33307 -0.0199601 0)
(8.33359 -0.0210154 0)
(8.33434 -0.0218372 0)
(8.33522 -0.0225629 0)
(8.33615 -0.0232835 0)
(8.33708 -0.0240592 0)
(8.33797 -0.0249293 0)
(8.33878 -0.0259194 0)
(8.33948 -0.0270464 0)
(8.34005 -0.0283218 0)
(8.34049 -0.0297539 0)
(8.34076 -0.0313488 0)
(8.34087 -0.0331114 0)
(8.3408 -0.0350459 0)
(8.34054 -0.037156 0)
(8.34008 -0.0394449 0)
(8.33942 -0.0419156 0)
(8.33854 -0.0445707 0)
(8.33744 -0.0474122 0)
(8.33611 -0.0504419 0)
(8.33455 -0.0536606 0)
(8.33275 -0.0570686 0)
(8.33069 -0.0606654 0)
(8.32838 -0.0644496 0)
(8.32582 -0.068419 0)
(8.32299 -0.07257 0)
(8.31989 -0.076899 0)
(8.31652 -0.0813972 0)
(8.33163 0.00355661 0)
(8.32831 0.00984078 0)
(8.32847 0.0127477 0)
(8.33078 0.0123341 0)
(8.33291 0.00978915 0)
(8.33466 0.00647953 0)
(8.33616 0.00299632 0)
(8.33744 -0.000448595 0)
(8.33853 -0.00374881 0)
(8.33945 -0.00686119 0)
(8.34021 -0.00978643 0)
(8.34084 -0.0125462 0)
(8.34133 -0.0151702 0)
(8.34169 -0.017691 0)
(8.3419 -0.0201404 0)
(8.34198 -0.0225484 0)
(8.3419 -0.0249422 0)
(8.34166 -0.0273463 0)
(8.34125 -0.0297822 0)
(8.34067 -0.0322689 0)
(8.3399 -0.0348229 0)
(8.33893 -0.0374587 0)
(8.33776 -0.0401887 0)
(8.33637 -0.0430232 0)
(8.33476 -0.0459713 0)
(8.33291 -0.04904 0)
(8.33084 -0.0522351 0)
(8.32851 -0.0555609 0)
(8.32594 -0.0590203 0)
(8.32311 -0.0626148 0)
(8.32003 -0.0663449 0)
(8.31668 -0.0702099 0)
(8.31308 -0.0742053 0)
(8.33428 -0.00657811 0)
(8.33449 -0.0211472 0)
(8.33036 -0.0307353 0)
(8.32608 -0.0351525 0)
(8.32399 -0.0363409 0)
(8.32387 -0.0361429 0)
(8.32466 -0.0353708 0)
(8.32588 -0.0343994 0)
(8.32734 -0.0334584 0)
(8.32889 -0.0326736 0)
(8.33044 -0.0321017 0)
(8.33192 -0.0317647 0)
(8.3333 -0.0316665 0)
(8.33453 -0.031802 0)
(8.33561 -0.0321617 0)
(8.33651 -0.0327349 0)
(8.33722 -0.0335111 0)
(8.33773 -0.0344808 0)
(8.33803 -0.0356357 0)
(8.33811 -0.0369687 0)
(8.33797 -0.0384742 0)
(8.33759 -0.0401471 0)
(8.33697 -0.0419835 0)
(8.3361 -0.0439798 0)
(8.33497 -0.0461328 0)
(8.33359 -0.0484397 0)
(8.33195 -0.0508973 0)
(8.33004 -0.0535027 0)
(8.32786 -0.0562524 0)
(8.32541 -0.0591428 0)
(8.32269 -0.0621698 0)
(8.31969 -0.0653292 0)
(8.31642 -0.0686131 0)
(8.32884 0.0225234 0)
(8.32232 0.0425542 0)
(8.32655 0.0436726 0)
(8.33301 0.0375822 0)
(8.33714 0.0301412 0)
(8.33946 0.0227843 0)
(8.34126 0.0158628 0)
(8.34293 0.00958818 0)
(8.34454 0.0040169 0)
(8.34616 -0.000900883 0)
(8.3478 -0.00524602 0)
(8.34946 -0.00910253 0)
(8.35111 -0.0125513 0)
(8.35272 -0.0156665 0)
(8.35428 -0.0185132 0)
(8.35575 -0.021148 0)
(8.3571 -0.0236191 0)
(8.35832 -0.0259678 0)
(8.35939 -0.0282293 0)
(8.36029 -0.0304335 0)
(8.36101 -0.0326059 0)
(8.36153 -0.0347682 0)
(8.36184 -0.0369391 0)
(8.36194 -0.0391342 0)
(8.36182 -0.0413669 0)
(8.36147 -0.0436485 0)
(8.36088 -0.0459884 0)
(8.36007 -0.0483945 0)
(8.35902 -0.0508732 0)
(8.35773 -0.0534295 0)
(8.35621 -0.0560675 0)
(8.35446 -0.0587903 0)
(8.35248 -0.0615982 0)
(8.32435 -0.038109 0)
(8.2938 -0.0685754 0)
(8.27187 -0.0721941 0)
(8.26639 -0.0693773 0)
(8.2734 -0.0653833 0)
(8.28609 -0.060844 0)
(8.30089 -0.0564272 0)
(8.31623 -0.0525353 0)
(8.33128 -0.0492399 0)
(8.34557 -0.0465217 0)
(8.35891 -0.0443422 0)
(8.37123 -0.0426476 0)
(8.38254 -0.0413799 0)
(8.39288 -0.0404862 0)
(8.40231 -0.03992 0)
(8.41089 -0.0396417 0)
(8.41869 -0.0396181 0)
(8.42576 -0.039822 0)
(8.43216 -0.0402309 0)
(8.43793 -0.0408268 0)
(8.44311 -0.041595 0)
(8.44775 -0.0425236 0)
(8.45188 -0.0436028 0)
(8.45552 -0.0448247 0)
(8.45871 -0.0461827 0)
(8.46146 -0.0476713 0)
(8.46378 -0.0492855 0)
(8.46571 -0.051021 0)
(8.46724 -0.0528738 0)
(8.46839 -0.05484 0)
(8.46918 -0.0569163 0)
(8.46959 -0.0590981 0)
(8.46965 -0.0613817 0)