/*--------------------------------*- C++ -*----------------------------------*\
| =========                 |                                                 |
| \\      /  F ield         | OpenFOAM: The Open Source CFD Toolbox           |
|  \\    /   O peration     | Version:  2.1.1                                 |
|   \\  /    A nd           | Web:      www.OpenFOAM.org                      |
|    \\/     M anipulation  |                                                 |
\*---------------------------------------------------------------------------*/
FoamFile
{
    version     2.0;
    format      ascii;
    class       volScalarField;
    location    "0.1";
    object      epsilon;
}
// * * * * * * * * * * * * * * * * * * * * * * * * * * * * * * * * * * * * * //

dimensions      [0 2 -3 0 0 0 0];

internalField   nonuniform List<scalar> 
6820
(
151.448
203.151
260.735
321.761
383.63
443.729
499.774
550.056
593.519
629.723
658.736
680.997
697.181
708.085
714.535
717.327
717.191
714.766
710.604
705.162
698.818
691.874
684.571
677.096
669.594
662.172
654.906
647.868
641.012
634.743
627.215
627.253
592.604
11.7448
21.4171
29.9429
38.6225
47.5766
56.5515
65.3101
73.6512
81.4129
88.4866
94.8175
100.399
105.261
109.459
113.067
116.16
118.816
121.109
123.103
124.855
126.416
127.826
129.118
130.323
131.462
132.556
133.625
134.69
135.774
136.945
138.228
140.035
142.26
5.8378
7.51683
9.20669
10.8094
12.32
13.7476
15.0887
16.3395
17.4984
18.5653
19.5419
20.4318
21.2403
21.9738
22.6396
23.2452
23.7984
24.3065
24.7764
25.2144
25.6262
26.0169
26.3908
26.7518
27.1029
27.447
27.7864
28.1232
28.4589
28.7962
29.1368
29.478
29.8646
5.24229
5.56004
6.00444
6.49349
6.98575
7.462
7.91315
8.3349
8.72557
9.08501
9.41397
9.71379
9.98617
10.233
10.4563
10.6581
10.8405
11.0052
11.1543
11.2894
11.4121
11.5241
11.6266
11.7209
11.8082
11.8894
11.9654
12.0369
12.1043
12.1681
12.2278
12.2844
12.3342
5.17349
5.18677
5.26821
5.39776
5.55638
5.72969
5.90781
6.08431
6.25516
6.41793
6.57122
6.71435
6.84707
6.96944
7.08174
7.18438
7.27786
7.36272
7.43954
7.50892
7.57144
7.62767
7.67817
7.72346
7.76405
7.80039
7.83291
7.86202
7.88806
7.91136
7.93216
7.95073
7.96712
5.16878
5.12131
5.09602
5.09481
5.11536
5.15307
5.20299
5.26075
5.32291
5.38691
5.45087
5.51346
5.57376
5.63117
5.68529
5.7359
5.7829
5.82628
5.8661
5.90246
5.9355
5.96538
5.99229
6.01639
6.0379
6.05698
6.07383
6.08864
6.10157
6.11279
6.12248
6.13073
6.13775
5.16887
5.11169
5.06116
5.01963
4.9884
4.96755
4.95615
4.95279
4.95586
4.96385
4.97541
4.98942
5.00498
5.02137
5.03801
5.05449
5.07048
5.08574
5.1001
5.11346
5.12572
5.13687
5.14689
5.15578
5.16358
5.17033
5.17606
5.18084
5.18472
5.18776
5.19003
5.19157
5.19246
5.16902
5.11062
5.05514
5.00339
4.95619
4.91414
4.87747
4.84611
4.81972
4.79781
4.77979
4.76509
4.75314
4.74345
4.73556
4.72909
4.72371
4.71915
4.71519
4.71163
4.70834
4.70518
4.70207
4.69894
4.69573
4.6924
4.68892
4.68527
4.68145
4.67746
4.67329
4.66894
4.66444
5.16904
5.11054
5.05431
5.00049
4.94927
4.9009
4.85559
4.81346
4.77456
4.73882
4.70611
4.67623
4.64896
4.62405
4.60124
4.58032
4.56104
4.54321
4.52664
4.51117
4.49665
4.48295
4.46996
4.4576
4.44577
4.4344
4.42345
4.41285
4.40257
4.39257
4.38283
4.37332
4.36401
5.16904
5.11054
5.0542
5.00002
4.94796
4.89803
4.85027
4.80472
4.76139
4.72029
4.6814
4.64466
4.61002
4.57737
4.5466
4.5176
4.49025
4.46443
4.44002
4.41691
4.39499
4.37416
4.35433
4.33543
4.31737
4.30008
4.2835
4.26758
4.25226
4.23751
4.22329
4.20954
4.19625
5.16904
5.11053
5.05418
4.99994
4.94773
4.89747
4.84913
4.80265
4.758
4.71515
4.67406
4.63471
4.59705
4.56104
4.52662
4.49373
4.46231
4.43229
4.40359
4.37616
4.34993
4.32482
4.30077
4.27773
4.25562
4.2344
4.21402
4.19442
4.17556
4.15741
4.13991
4.12303
4.10673
5.16904
5.11052
5.05417
4.99991
4.94767
4.89735
4.84888
4.80219
4.7572
4.71385
4.6721
4.6319
4.59319
4.55593
4.52007
4.48557
4.45238
4.42045
4.38973
4.36019
4.33176
4.3044
4.27807
4.25272
4.22831
4.20479
4.18212
4.16027
4.13919
4.11886
4.09923
4.08028
4.06197
5.16904
5.11052
5.05416
4.99989
4.94764
4.89731
4.84881
4.80206
4.75699
4.71352
4.67159
4.63114
4.59211
4.55445
4.5181
4.48302
4.44917
4.41649
4.38495
4.35449
4.3251
4.29671
4.2693
4.24283
4.21726
4.19256
4.16869
4.14562
4.12332
4.10176
4.08092
4.06075
4.04123
5.16903
5.11051
5.05415
4.99988
4.94762
4.89728
4.84877
4.802
4.75691
4.71341
4.67143
4.63091
4.59179
4.55401
4.51751
4.48225
4.44817
4.41523
4.38339
4.3526
4.32283
4.29403
4.26617
4.23922
4.21315
4.18791
4.16348
4.13984
4.11694
4.09477
4.0733
4.05251
4.03236
5.16903
5.11051
5.05414
4.99987
4.9476
4.89725
4.84873
4.80196
4.75685
4.71334
4.67134
4.6308
4.59165
4.55384
4.51729
4.48197
4.44783
4.4148
4.38286
4.35196
4.32205
4.29311
4.26508
4.23795
4.21167
4.18622
4.16156
4.13767
4.11452
4.09208
4.07033
4.04924
4.02879
5.16903
5.11051
5.05413
4.99986
4.94758
4.89723
4.8487
4.80192
4.75681
4.71328
4.67128
4.63072
4.59156
4.55373
4.51717
4.48183
4.44765
4.4146
4.38263
4.35168
4.32173
4.29273
4.26465
4.23745
4.2111
4.18556
4.16082
4.13683
4.11358
4.09103
4.06916
4.04794
4.02736
5.16903
5.1105
5.05413
4.99985
4.94757
4.89721
4.84868
4.80189
4.75676
4.71323
4.67122
4.63065
4.59148
4.55364
4.51707
4.48171
4.44753
4.41446
4.38247
4.35151
4.32154
4.29252
4.26441
4.23719
4.2108
4.18524
4.16046
4.13643
4.11313
4.09054
4.06862
4.04735
4.02672
5.16903
5.1105
5.05412
4.99984
4.94756
4.89719
4.84865
4.80186
4.75673
4.71319
4.67116
4.63059
4.59141
4.55356
4.51698
4.48161
4.44742
4.41434
4.38234
4.35136
4.32138
4.29235
4.26423
4.23699
4.21059
4.18501
4.16021
4.13617
4.11285
4.09023
4.06829
4.047
4.02633
5.16903
5.1105
5.05412
4.99983
4.94755
4.89718
4.84863
4.80183
4.75669
4.71314
4.67111
4.63054
4.59135
4.55348
4.51689
4.48152
4.44732
4.41423
4.38222
4.35123
4.32124
4.2922
4.26407
4.23682
4.21041
4.18481
4.16
4.13594
4.11261
4.08998
4.06802
4.04671
4.02603
5.16903
5.1105
5.05411
4.99982
4.94754
4.89716
4.84861
4.80181
4.75666
4.71311
4.67107
4.63048
4.59129
4.55342
4.51682
4.48144
4.44722
4.41413
4.3821
4.35111
4.32111
4.29206
4.26392
4.23665
4.21024
4.18463
4.15981
4.13574
4.11239
4.08975
4.06778
4.04646
4.02576
5.16903
5.1105
5.05411
4.99982
4.94753
4.89715
4.8486
4.80179
4.75664
4.71308
4.67103
4.63044
4.59123
4.55335
4.51675
4.48136
4.44714
4.41403
4.382
4.351
4.32099
4.29192
4.26377
4.2365
4.21007
4.18446
4.15962
4.13554
4.11218
4.08953
4.06754
4.04621
4.0255
5.16903
5.11049
5.05411
4.99981
4.94752
4.89714
4.84858
4.80177
4.75661
4.71305
4.671
4.6304
4.59118
4.5533
4.51668
4.48129
4.44706
4.41394
4.3819
4.35089
4.32087
4.2918
4.26364
4.23636
4.20992
4.18429
4.15945
4.13535
4.11199
4.08932
4.06732
4.04598
4.02526
5.16903
5.11049
5.05411
4.99981
4.94752
4.89713
4.84857
4.80175
4.75659
4.71302
4.67096
4.63036
4.59114
4.55325
4.51663
4.48122
4.44698
4.41386
4.38181
4.3508
4.32077
4.29168
4.26351
4.23622
4.20977
4.18414
4.15928
4.13518
4.1118
4.08912
4.06711
4.04576
4.02502
5.16903
5.11049
5.0541
4.99981
4.94751
4.89712
4.84856
4.80174
4.75657
4.713
4.67094
4.63033
4.5911
4.5532
4.51657
4.48116
4.44692
4.41379
4.38173
4.35071
4.32067
4.29158
4.2634
4.2361
4.20964
4.18399
4.15913
4.13501
4.11162
4.08893
4.06691
4.04554
4.0248
5.16903
5.11049
5.0541
4.9998
4.94751
4.89712
4.84855
4.80172
4.75656
4.71298
4.67091
4.6303
4.59106
4.55316
4.51653
4.48111
4.44686
4.41372
4.38166
4.35062
4.32058
4.29148
4.26329
4.23598
4.20951
4.18386
4.15898
4.13485
4.11145
4.08875
4.06672
4.04534
4.02458
5.16903
5.11049
5.0541
4.9998
4.9475
4.89711
4.84854
4.80171
4.75654
4.71296
4.67089
4.63027
4.59104
4.55313
4.51649
4.48106
4.4468
4.41366
4.38159
4.35055
4.32049
4.29139
4.26319
4.23587
4.2094
4.18373
4.15884
4.13471
4.1113
4.08859
4.06654
4.04515
4.02438
5.16903
5.11049
5.0541
4.9998
4.9475
4.89711
4.84854
4.8017
4.75653
4.71294
4.67087
4.63025
4.59101
4.55309
4.51645
4.48102
4.44675
4.4136
4.38153
4.35048
4.32042
4.2913
4.2631
4.23577
4.20929
4.18361
4.15872
4.13457
4.11115
4.08843
4.06638
4.04497
4.02419
5.16903
5.11049
5.0541
4.9998
4.9475
4.8971
4.84853
4.8017
4.75653
4.71294
4.67086
4.63023
4.59099
4.55307
4.51642
4.48099
4.44672
4.41356
4.38148
4.35042
4.32035
4.29123
4.26302
4.23569
4.20919
4.18351
4.15861
4.13445
4.11102
4.08829
4.06623
4.04482
4.02402
5.16903
5.11049
5.0541
4.9998
4.9475
4.8971
4.84853
4.80169
4.75651
4.71292
4.67084
4.63021
4.59096
4.55304
4.51639
4.48095
4.44667
4.41351
4.38143
4.35036
4.32029
4.29116
4.26295
4.2356
4.2091
4.18341
4.1585
4.13434
4.1109
4.08816
4.06609
4.04467
4.02387
5.16903
5.11049
5.0541
4.9998
4.9475
4.89711
4.84853
4.8017
4.75652
4.71293
4.67085
4.63022
4.59097
4.55305
4.51639
4.48095
4.44667
4.41351
4.38141
4.35035
4.32027
4.29113
4.26291
4.23556
4.20905
4.18335
4.15843
4.13427
4.11082
4.08807
4.06599
4.04456
4.02375
5.16903
5.11049
5.0541
4.9998
4.9475
4.8971
4.84853
4.80169
4.75651
4.71291
4.67083
4.6302
4.59095
4.55302
4.51636
4.48092
4.44664
4.41347
4.38138
4.35031
4.32023
4.29109
4.26287
4.23552
4.20901
4.18331
4.15838
4.13421
4.11076
4.08801
4.06593
4.0445
4.02368
5.16903
5.11049
5.0541
4.99981
4.94752
4.89714
4.84858
4.80176
4.75659
4.713
4.67093
4.6303
4.59105
4.55313
4.51647
4.48102
4.44674
4.41358
4.38148
4.35041
4.32033
4.2912
4.26297
4.23563
4.20912
4.18343
4.15851
4.13435
4.11091
4.08817
4.0661
4.04468
4.02388
5.16903
5.11051
5.05414
4.99985
4.94756
4.89718
4.84861
4.80178
4.75661
4.71302
4.67095
4.63033
4.59109
4.55319
4.51655
4.48113
4.44688
4.41374
4.38169
4.35066
4.32062
4.29154
4.26337
4.23608
4.20964
4.18402
4.15918
4.13509
4.11173
4.08908
4.0671
4.04578
4.02508
5.16903
5.1105
5.05415
4.99992
4.9477
4.89739
4.8489
4.80214
4.75703
4.71351
4.67151
4.63096
4.59181
4.554
4.51747
4.48218
4.44807
4.41511
4.38324
4.35242
4.32261
4.29378
4.26588
4.23888
4.21274
4.18744
4.16294
4.13921
4.11622
4.09394
4.07235
4.05143
4.03114
5.16905
5.11063
5.05441
5.00026
4.9481
4.89786
4.84947
4.80288
4.75802
4.71482
4.67323
4.63318
4.59461
4.55747
4.52171
4.48726
4.45408
4.42211
4.3913
4.36161
4.33298
4.30539
4.27877
4.25309
4.22831
4.20439
4.1813
4.15899
4.13744
4.11662
4.09649
4.07703
4.0582
5.16908
5.11079
5.05488
5.00136
4.95017
4.9012
4.8544
4.80972
4.76709
4.72647
4.68779
4.65096
4.61591
4.58255
4.55079
4.52056
4.49176
4.46431
4.43814
4.41316
4.38931
4.36652
4.34473
4.32386
4.30388
4.28472
4.26633
4.24868
4.23171
4.2154
4.19969
4.18457
4.16998
5.16939
5.11359
5.06202
5.01464
4.97148
4.93247
4.89744
4.86611
4.83817
4.8133
4.79117
4.77148
4.75394
4.7383
4.72432
4.7118
4.70054
4.69039
4.68119
4.67282
4.66517
4.65814
4.65164
4.6456
4.63996
4.63465
4.62962
4.62484
4.62027
4.61587
4.61162
4.60749
4.60346
5.17808
5.16329
5.16947
5.19112
5.22425
5.26585
5.31354
5.36541
5.42006
5.47638
5.53356
5.59092
5.64797
5.70431
5.75966
5.8138
5.86656
5.91782
5.96752
6.0156
6.06204
6.10682
6.14997
6.1915
6.23143
6.26981
6.30667
6.34205
6.37601
6.40859
6.43984
6.46982
6.49858
5.63861
6.43047
7.14598
7.82604
8.49547
9.14826
9.77853
10.3839
10.9643
11.5205
12.054
12.5663
13.0589
13.5333
13.9908
14.4324
14.8591
15.2719
15.6715
16.0585
16.4337
16.7976
17.1506
17.4933
17.8261
18.1494
18.4636
18.7691
19.0661
19.3551
19.6364
19.9102
20.177
44.7794
48.3124
51.8864
55.4656
59.0311
62.5709
66.0743
69.5317
72.9342
76.2742
79.5446
82.7397
85.8545
88.8851
91.8283
94.6817
97.4436
100.113
102.689
105.172
107.563
109.862
112.07
114.189
116.221
118.168
120.031
121.814
123.517
125.144
126.697
128.179
129.593
703.3
832.166
939.387
1030.47
1107.84
1167.36
1203.4
1212.63
1196.03
1158.42
1106.68
1047.92
987.933
930.569
877.698
829.771
786.472
747.256
711.633
679.267
649.936
623.458
599.623
578.17
558.788
541.14
524.892
509.731
495.377
481.59
468.164
454.924
441.722
428.429
414.933
401.135
386.947
372.288
357.083
341.26
324.751
307.494
289.431
270.513
250.708
230.008
208.443
186.097
163.131
139.807
116.52
93.8207
72.4266
53.1837
36.9514
24.3758
15.6092
10.1709
7.1455
5.60027
4.86441
4.54704
4.44104
4.4386
4.48275
4.54296
4.60297
4.65451
4.69392
4.72028
4.73426
4.73741
4.73175
4.71944
4.70264
4.68337
4.66341
4.64422
4.6269
4.61215
4.60027
4.59125
4.58479
4.58036
4.57732
4.57493
4.57245
4.56918
4.56449
4.55791
4.54911
4.53786
4.52401
4.50736
4.48766
4.46434
4.43697
4.40266
4.36935
4.28719
146.707
153.441
163.991
180.041
203.191
234.819
275.46
324.435
379.637
437.597
493.888
543.854
583.529
610.458
624.122
625.781
617.897
603.382
584.964
564.791
544.316
524.376
505.357
487.37
470.387
454.321
439.072
424.533
410.599
397.159
384.099
371.304
358.658
346.049
333.375
320.537
307.446
294.021
280.185
265.87
251.015
235.566
219.485
202.75
185.365
167.369
148.851
129.966
110.955
92.1616
74.047
57.1812
42.1998
29.7004
20.0764
13.344
9.09122
6.64184
5.32922
4.66781
4.36336
4.25155
4.24155
4.28205
4.34356
4.40909
4.4691
4.5186
4.55547
4.57941
4.59127
4.59253
4.58508
4.57089
4.55196
4.53016
4.50717
4.48441
4.46302
4.44379
4.42718
4.41334
4.40218
4.39336
4.3864
4.3807
4.37562
4.37051
4.36478
4.35792
4.34956
4.33941
4.32724
4.31279
4.29573
4.27548
4.25159
4.2213
4.19187
4.11763
30.236
30.6783
31.3566
32.4675
34.2233
36.7691
40.495
45.9099
53.6031
64.1715
78.1056
95.6409
116.686
140.72
166.699
193.189
218.591
241.407
260.483
275.154
285.28
291.158
293.381
292.672
289.754
285.26
279.695
273.424
266.695
259.659
252.396
244.937
237.279
229.401
221.266
212.831
204.048
194.867
185.24
175.125
164.488
153.306
141.574
129.315
116.58
103.464
90.1165
76.7478
63.641
51.1491
39.6768
29.6363
21.3686
15.0448
10.5916
7.70385
5.96049
4.96715
4.43279
4.17056
4.06723
4.05472
4.09148
4.15181
4.21971
4.28535
4.3429
4.38924
4.42311
4.44452
4.45434
4.45393
4.44501
4.42935
4.40878
4.38501
4.35961
4.33394
4.30913
4.286
4.26514
4.24685
4.23117
4.21796
4.20691
4.19756
4.18939
4.18183
4.17433
4.1664
4.15764
4.14772
4.13636
4.12324
4.108
4.09005
4.0689
4.04196
4.01583
3.94881
12.3902
12.4684
12.5671
12.6911
12.8528
13.0656
13.3488
13.7372
14.2868
15.084
16.252
17.9465
20.2957
23.3859
27.3306
32.2213
38.0918
44.8911
52.467
60.571
68.8829
77.0514
84.7389
91.6613
97.6145
102.484
106.239
108.919
110.607
111.412
111.448
110.817
109.604
107.873
105.66
102.986
99.8518
96.2477
92.1589
87.5712
82.4768
76.881
70.8078
64.3066
57.4577
50.3778
43.223
36.188
29.4976
23.3882
18.075
13.7106
10.3456
7.91468
6.26201
5.19648
4.5426
4.16484
3.96781
3.88689
3.87853
3.91332
3.97129
4.03894
4.10717
4.17001
4.22375
4.26633
4.29696
4.31579
4.32363
4.32172
4.31155
4.29474
4.27293
4.24766
4.22039
4.1924
4.16477
4.13836
4.11379
4.09147
4.07159
4.05416
4.039
4.02582
4.01422
4.00373
3.99388
3.98419
3.97429
3.96381
3.95245
3.93985
3.92563
3.90918
3.89002
3.86572
3.84228
3.78164
7.98396
8.0023
8.02026
8.03804
8.05705
8.07964
8.10854
8.14705
8.19996
8.27517
8.38575
8.55595
8.80245
9.13974
9.58459
10.1536
10.8617
11.721
12.7392
13.9183
15.2527
16.7278
18.3195
19.994
21.7102
23.4221
25.083
26.6494
28.084
29.3577
30.4502
31.3484
32.0445
32.5336
32.8102
32.8666
32.6916
32.2706
31.587
30.6251
29.3739
27.8312
26.008
23.9325
21.6524
19.2361
16.7699
14.3523
12.0838
10.053
8.32299
6.92165
5.84106
5.04619
4.48839
4.1173
3.88787
3.76282
3.7125
3.71379
3.74892
3.80435
3.86992
3.93809
4.00338
4.06192
4.11118
4.14973
4.17704
4.19329
4.19921
4.19588
4.18463
4.1669
4.14414
4.11776
4.08907
4.05927
4.02938
4.00024
3.97252
3.94667
3.923
3.90161
3.88249
3.86546
3.85026
3.83654
3.82388
3.8119
3.80022
3.78849
3.77639
3.76356
3.74959
3.73389
3.71599
3.69361
3.67223
3.61706
6.14417
6.14928
6.15234
6.15374
6.1538
6.15296
6.15182
6.15115
6.15182
6.15496
6.16232
6.17613
6.19944
6.23554
6.28775
6.35922
6.45265
6.57016
6.71318
6.88225
7.07692
7.29562
7.53568
7.79335
8.06395
8.34209
8.62189
8.89733
9.16255
9.41213
9.64127
9.84592
10.0226
10.1683
10.2797
10.3533
10.3844
10.3671
10.2941
10.1577
9.95011
9.66522
9.30011
8.85678
8.34345
7.77509
7.17283
6.56209
5.96958
5.41994
4.93265
4.52014
4.18752
3.9335
3.75214
3.63462
3.57079
3.55018
3.5628
3.59956
3.65248
3.71476
3.78077
3.84594
3.90665
3.96022
4.0048
4.03929
4.06332
4.07704
4.0811
4.07644
4.06423
4.04572
4.02223
3.99501
3.96527
3.93408
3.90242
3.87108
3.84073
3.81187
3.78485
3.75988
3.73704
3.7163
3.69748
3.68036
3.66462
3.64994
3.63598
3.62243
3.60896
3.59522
3.58081
3.56516
3.54781
3.52664
3.50668
3.45604
5.19258
5.19147
5.18896
5.18508
5.17987
5.17347
5.16613
5.15813
5.14971
5.14108
5.13248
5.12421
5.11665
5.11032
5.10585
5.10393
5.10524
5.11038
5.11986
5.13402
5.15297
5.17656
5.20433
5.23556
5.26927
5.3043
5.33939
5.3732
5.40443
5.43184
5.45431
5.47087
5.48068
5.48308
5.47744
5.46314
5.43946
5.40545
5.35994
5.30147
5.22843
5.13924
5.03269
4.90833
4.76688
4.61057
4.44329
4.2705
4.09876
3.93513
3.78635
3.65814
3.55468
3.47827
3.42935
3.4067
3.40781
3.42922
3.46695
3.51686
3.57484
3.63703
3.6999
3.76037
3.81586
3.8643
3.90425
3.93482
3.95569
3.96699
3.96927
3.96335
3.95025
3.93108
3.90701
3.87917
3.84865
3.81643
3.7834
3.75032
3.71784
3.68646
3.65656
3.62843
3.60223
3.57799
3.55568
3.53516
3.5162
3.49856
3.48198
3.46615
3.4508
3.43558
3.42011
3.40387
3.38641
3.36579
3.34664
3.29955
4.6589
4.652
4.6443
4.63576
4.62641
4.61631
4.60554
4.59419
4.58234
4.57005
4.55737
4.5443
4.53084
4.51697
4.50274
4.48818
4.47341
4.45852
4.44366
4.42895
4.41451
4.40041
4.38663
4.37311
4.35969
4.34617
4.33225
4.31763
4.30198
4.28497
4.26627
4.2456
4.22269
4.19734
4.16938
4.13868
4.10513
4.06861
4.02898
3.98609
3.93977
3.88986
3.83628
3.77911
3.71872
3.65582
3.59159
3.5277
3.46626
3.40968
3.36048
3.32105
3.29335
3.27877
3.27792
3.29066
3.31607
3.35266
3.39842
3.45104
3.50802
3.56682
3.62494
3.68008
3.7302
3.77365
3.80919
3.83606
3.85395
3.86297
3.86358
3.85648
3.84257
3.82283
3.7983
3.77
3.73891
3.70593
3.67187
3.63745
3.60327
3.56983
3.53753
3.50669
3.4775
3.45011
3.42453
3.40072
3.37856
3.35786
3.33843
3.32002
3.30239
3.28524
3.26821
3.25081
3.23266
3.21197
3.19305
3.14854
4.35334
4.34106
4.32843
4.31542
4.30202
4.28822
4.27405
4.25953
4.2447
4.22959
4.2142
4.19853
4.18254
4.16617
4.14934
4.132
4.11409
4.09556
4.07638
4.05656
4.0361
4.01503
3.99337
3.97115
3.94838
3.92504
3.90113
3.8766
3.8514
3.82549
3.79881
3.77129
3.74291
3.71361
3.6834
3.65227
3.62026
3.58741
3.55381
3.51953
3.48471
3.4495
3.41411
3.37883
3.34404
3.31027
3.27817
3.2486
3.22253
3.20108
3.1854
3.17657
3.17553
3.18296
3.19916
3.22405
3.2571
3.29739
3.34366
3.39435
3.44766
3.5017
3.55451
3.60423
3.64916
3.68787
3.71929
3.74271
3.75785
3.76477
3.76382
3.75564
3.741
3.72076
3.69587
3.66723
3.63574
3.60222
3.56741
3.53197
3.49647
3.46139
3.42713
3.39401
3.36228
3.3321
3.30356
3.2767
3.25145
3.22772
3.20537
3.18422
3.16406
3.14464
3.12565
3.10665
3.08732
3.06599
3.04678
3.00391
4.18124
4.16429
4.14726
4.13012
4.11285
4.09543
4.07788
4.06021
4.04245
4.02459
4.00665
3.98861
3.97044
3.95212
3.93357
3.91473
3.89554
3.87593
3.85583
3.83521
3.81402
3.79224
3.76986
3.74689
3.72333
3.69921
3.67453
3.64933
3.62361
3.59742
3.57076
3.54368
3.51619
3.48833
3.46017
3.43175
3.40317
3.37452
3.34593
3.31756
3.28957
3.26219
3.23568
3.21034
3.18653
3.1647
3.14534
3.12902
3.11636
3.10803
3.10467
3.1069
3.11524
3.13001
3.15137
3.17919
3.21306
3.25231
3.29597
3.34283
3.39148
3.44036
3.48784
3.53233
3.57236
3.60666
3.63426
3.65452
3.66712
3.6721
3.66974
3.66057
3.64528
3.62463
3.59946
3.57059
3.53884
3.50494
3.4696
3.43341
3.39692
3.36057
3.32475
3.28977
3.2559
3.22334
3.19221
3.1626
3.1345
3.10788
3.08267
3.05874
3.03593
3.01405
2.99283
2.97189
2.95096
2.92854
2.90859
2.8665
4.0884
4.0678
4.04725
4.02672
4.00621
3.9857
3.9652
3.94472
3.92427
3.90386
3.88349
3.86318
3.8429
3.82264
3.80236
3.78202
3.76158
3.74097
3.72015
3.69907
3.67768
3.65595
3.63384
3.61135
3.58846
3.56517
3.5415
3.51747
3.49309
3.46839
3.44342
3.41821
3.39281
3.36729
3.3417
3.31614
3.2907
3.26549
3.24066
3.21636
3.19277
3.17012
3.14864
3.12863
3.1104
3.09433
3.08082
3.0703
3.06324
3.06011
3.06135
3.06738
3.07852
3.09499
3.11683
3.14393
3.17592
3.21226
3.25214
3.29456
3.33833
3.3821
3.42448
3.46407
3.49954
3.52977
3.55387
3.57121
3.58149
3.58469
3.58105
3.571
3.55513
3.53414
3.50877
3.47977
3.44787
3.41375
3.37806
3.34135
3.30413
3.26682
3.22979
3.19334
3.15774
3.12319
3.08986
3.05784
3.02719
2.99793
2.97002
2.9434
2.91795
2.89353
2.86993
2.84684
2.82404
2.80017
2.77912
2.73703
4.04136
4.0182
3.99513
3.97212
3.94918
3.92631
3.9035
3.88078
3.85815
3.83563
3.81322
3.79095
3.76881
3.74679
3.72489
3.70307
3.68132
3.65959
3.63786
3.61608
3.59422
3.57224
3.55013
3.52785
3.50539
3.48275
3.45991
3.43689
3.41369
3.39035
3.36688
3.34332
3.31972
3.29614
3.27263
3.24929
3.2262
3.20347
3.18124
3.15966
3.1389
3.11917
3.10067
3.08368
3.06848
3.05537
3.04469
3.0368
3.03208
3.03089
3.03358
3.04046
3.05176
3.06764
3.08811
3.11306
3.14217
3.17496
3.21075
3.24867
3.28768
3.3266
3.36421
3.39924
3.43051
3.457
3.47787
3.49254
3.50069
3.50227
3.49746
3.48663
3.47027
3.44902
3.42352
3.39446
3.3625
3.32829
3.2924
3.25536
3.21764
3.17963
3.14169
3.10411
3.06714
3.031
2.99583
2.96179
2.92894
2.89733
2.86697
2.83784
2.80987
2.78297
2.75697
2.73163
2.70681
2.68123
2.65882
2.61607
4.01924
3.99449
3.96981
3.9452
3.92065
3.89617
3.87178
3.84747
3.82327
3.7992
3.77527
3.75149
3.72788
3.70444
3.68117
3.65807
3.63512
3.61231
3.58962
3.56702
3.54449
3.52201
3.49956
3.47711
3.45466
3.43218
3.40968
3.38716
3.36462
3.34206
3.31952
3.29701
3.27458
3.25227
3.23014
3.20826
3.18671
3.1656
3.14504
3.12517
3.10615
3.08816
3.07139
3.05608
3.04247
3.03084
3.02147
3.01466
3.01072
3.00997
3.01268
3.0191
3.02943
3.04377
3.06214
3.08442
3.11033
3.13946
3.1712
3.20478
3.23929
3.27369
3.30687
3.3377
3.36511
3.38815
3.40606
3.41828
3.42448
3.42458
3.41871
3.40717
3.3904
3.36895
3.34339
3.31434
3.28243
3.24822
3.21226
3.17504
3.137
3.09852
3.05993
3.02151
2.9835
2.94609
2.90947
2.87376
2.83907
2.80545
2.77295
2.74158
2.71131
2.68207
2.65377
2.6262
2.5993
2.57189
2.54796
2.50406
4.00961
3.98399
3.95841
3.93286
3.90737
3.88193
3.85655
3.83126
3.80605
3.78096
3.756
3.73119
3.70655
3.68208
3.6578
3.63371
3.6098
3.58608
3.56255
3.53917
3.51596
3.49289
3.46994
3.44711
3.42439
3.40177
3.37924
3.3568
3.33445
3.3122
3.29007
3.26808
3.24625
3.22463
3.20326
3.18221
3.16155
3.14136
3.12176
3.10287
3.08483
3.06779
3.05194
3.03747
3.02461
3.01358
3.00465
2.99807
2.99411
2.99303
2.99506
3.00042
3.00926
3.02168
3.03768
3.05715
3.07984
3.10539
3.13325
3.16276
3.19307
3.22328
3.25237
3.27933
3.30319
3.32307
3.33825
3.3482
3.35261
3.35135
3.34452
3.33236
3.31524
3.29364
3.26808
3.23911
3.20731
3.17319
3.13727
3.10001
3.06181
3.02304
2.98402
2.945
2.90622
2.86787
2.83012
2.7931
2.75691
2.72164
2.68734
2.65403
2.62172
2.59039
2.55996
2.53029
2.50138
2.47211
2.44661
2.40121
4.00568
3.97963
3.95359
3.92757
3.90158
3.87562
3.84971
3.82385
3.79807
3.77238
3.74681
3.72135
3.69605
3.67091
3.64594
3.62116
3.59657
3.57217
3.54798
3.52397
3.50017
3.47654
3.45311
3.42984
3.40675
3.38383
3.36107
3.33848
3.31606
3.29381
3.27175
3.2499
3.22829
3.20694
3.1859
3.16523
3.14498
3.12524
3.1061
3.08768
3.07009
3.05348
3.03801
3.02385
3.0112
3.00027
2.99127
2.98444
2.98
2.97817
2.97917
2.98318
2.99032
3.00068
3.01425
3.03093
3.0505
3.07264
3.09686
3.12255
3.14898
3.17531
3.20063
3.22403
3.24461
3.26157
3.27424
3.28211
3.28486
3.28236
3.27465
3.26193
3.24451
3.22281
3.1973
3.16847
3.13684
3.10289
3.0671
3.0299
2.99168
2.95277
2.91349
2.87409
2.83478
2.79575
2.75716
2.71914
2.6818
2.6452
2.60943
2.57453
2.5405
2.50735
2.47505
2.44349
2.41272
2.38169
2.35465
2.30757
4.00409
3.97785
3.9516
3.92536
3.89913
3.87292
3.84674
3.8206
3.79452
3.7685
3.74258
3.71676
3.69107
3.66552
3.64012
3.61489
3.58984
3.56498
3.54031
3.51584
3.49157
3.4675
3.44364
3.41997
3.39652
3.37326
3.35021
3.32737
3.30474
3.28234
3.26017
3.23826
3.21662
3.1953
3.17432
3.15373
3.1336
3.11399
3.095
3.07671
3.05925
3.04273
3.0273
3.01312
3.00035
2.98919
2.97983
2.97246
2.96729
2.96451
2.96431
2.96684
2.9722
2.98048
2.99166
3.00565
3.02226
3.04118
3.06199
3.08414
3.10697
3.12972
3.15157
3.17168
3.18925
3.20352
3.21386
3.2198
3.22102
3.21736
3.20885
3.19563
3.17796
3.15621
3.13079
3.10214
3.07073
3.03702
3.00143
2.96439
2.92625
2.88734
2.84795
2.80833
2.76869
2.72921
2.69003
2.65129
2.61307
2.57548
2.53856
2.50238
2.46696
2.43232
2.39844
2.36525
2.33284
2.30021
2.27177
2.22296
4.00338
3.97705
3.95071
3.92437
3.89803
3.8717
3.8454
3.81912
3.79288
3.76671
3.7406
3.71458
3.68867
3.66287
3.63721
3.6117
3.58635
3.56117
3.53617
3.51136
3.48675
3.46234
3.43814
3.41414
3.39036
3.3668
3.34346
3.32035
3.29748
3.27486
3.2525
3.23042
3.20865
3.18721
3.16614
3.14548
3.12529
3.10564
3.08659
3.06825
3.0507
3.03407
3.01848
3.00407
2.991
2.97943
2.96953
2.96148
2.95545
2.95162
2.95014
2.95115
2.95475
2.96099
2.96986
2.98129
2.9951
3.01101
3.02865
3.04751
3.06701
3.08645
3.1051
3.12218
3.13695
3.14873
3.15692
3.16108
3.16087
3.15615
3.1469
3.13323
3.11535
3.09359
3.06829
3.03986
3.00872
2.97529
2.93998
2.90316
2.8652
2.82639
2.78703
2.74734
2.70753
2.66777
2.62822
2.58898
2.55016
2.51183
2.47407
2.43692
2.40042
2.3646
2.32945
2.29493
2.26115
2.22714
2.19749
2.14706
4.00296
3.97659
3.95021
3.92382
3.89743
3.87104
3.84467
3.81833
3.79202
3.76575
3.73954
3.71341
3.68736
3.66142
3.63559
3.60989
3.58434
3.55894
3.53371
3.50866
3.48379
3.45911
3.43464
3.41037
3.38632
3.36249
3.33889
3.31553
3.29242
3.26956
3.24699
3.22471
3.20274
3.18113
3.15989
3.13908
3.11874
3.09894
3.07974
3.06123
3.04349
3.02663
3.01077
2.99603
2.98255
2.97047
2.95994
2.95113
2.94419
2.93927
2.9365
2.93601
2.93788
2.94216
2.94884
2.95785
2.96903
2.98213
2.99682
3.01264
3.02905
3.04544
3.06112
3.0754
3.0876
3.09707
3.10327
3.10576
3.10423
3.09853
3.08859
3.07451
3.05647
3.03471
3.00956
2.98138
2.95055
2.91746
2.88247
2.84595
2.80824
2.76963
2.73038
2.69074
2.6509
2.61103
2.57127
2.53173
2.49252
2.4537
2.41534
2.3775
2.34022
2.30351
2.2674
2.23184
2.19698
2.16186
2.13121
2.07938
4.00264
3.97625
3.94983
3.92342
3.89699
3.87058
3.84417
3.81778
3.79142
3.7651
3.73882
3.71261
3.68648
3.66043
3.63449
3.60866
3.58296
3.5574
3.53199
3.50675
3.48168
3.45679
3.4321
3.40761
3.38332
3.35926
3.33543
3.31183
3.28849
3.26542
3.24262
3.22013
3.19796
3.17615
3.15472
3.13372
3.11319
3.09319
3.07378
3.05504
3.03706
3.01991
3.00372
2.98859
2.97465
2.96201
2.95083
2.94124
2.93337
2.92736
2.92333
2.92138
2.92159
2.924
2.92861
2.93534
2.94406
2.95454
2.96648
2.97948
2.99303
3.00659
3.01954
3.03123
3.04104
3.04837
3.05272
3.05367
3.05092
3.0443
3.03374
3.01929
3.0011
2.97937
2.9544
2.9265
2.89601
2.86328
2.82867
2.79251
2.75511
2.71677
2.67774
2.63825
2.59849
2.55863
2.5188
2.47913
2.4397
2.40058
2.36185
2.32356
2.28573
2.24841
2.21161
2.1753
2.13964
2.10368
2.07228
2.01931
4.00235
3.97594
3.9495
3.92306
3.89662
3.87017
3.84373
3.81731
3.79091
3.76455
3.73823
3.71196
3.68575
3.65963
3.63359
3.60766
3.58184
3.55615
3.5306
3.5052
3.47996
3.45489
3.43001
3.40532
3.38084
3.35657
3.33252
3.30872
3.28517
3.26188
3.23887
3.21617
3.1938
3.17178
3.15015
3.12894
3.1082
3.08799
3.06835
3.04936
3.0311
3.01365
2.9971
2.98155
2.96712
2.95392
2.94207
2.9317
2.92291
2.91584
2.91059
2.90724
2.90587
2.90651
2.90916
2.91375
2.92017
2.92822
2.93761
2.94798
2.9589
2.96984
2.98025
2.98954
2.99714
3.00249
3.00512
3.00464
3.00075
2.99328
2.98214
2.96737
2.94905
2.92739
2.90261
2.87501
2.84489
2.81256
2.77836
2.74261
2.70559
2.66759
2.62885
2.58959
2.55001
2.51027
2.4705
2.43082
2.39132
2.35207
2.31314
2.27459
2.23644
2.19873
2.16148
2.12467
2.08847
2.05193
2.02001
1.96621
4.00208
3.97565
3.94919
3.92273
3.89626
3.86979
3.84333
3.81687
3.79044
3.76404
3.73767
3.71135
3.68508
3.65889
3.63277
3.60675
3.58083
3.55502
3.52934
3.50381
3.47842
3.4532
3.42815
3.40328
3.37862
3.35416
3.32993
3.30592
3.28217
3.25868
3.23548
3.21258
3.19
3.16778
3.14594
3.12453
3.10358
3.08313
3.06326
3.04401
3.02546
3.00769
2.99078
2.97481
2.9599
2.94613
2.93363
2.92248
2.91281
2.90471
2.89828
2.8936
2.89073
2.8897
2.8905
2.89309
2.89736
2.90313
2.91015
2.9181
2.92656
2.93508
2.94315
2.95022
2.95577
2.95929
2.96033
2.95852
2.95358
2.94532
2.93365
2.91857
2.90016
2.87857
2.85401
2.82673
2.79699
2.76511
2.73137
2.69606
2.65948
2.62188
2.5835
2.54456
2.50525
2.46571
2.4261
2.38652
2.34707
2.30782
2.26885
2.23019
2.19189
2.15398
2.11649
2.07939
2.04288
2.00598
1.97375
1.91942
4.00182
3.97537
3.94889
3.92241
3.89592
3.86942
3.84293
3.81645
3.78999
3.76354
3.73713
3.71076
3.68444
3.65818
3.63199
3.60589
3.57987
3.55396
3.52817
3.50251
3.47699
3.45163
3.42642
3.4014
3.37657
3.35193
3.32752
3.30333
3.2794
3.25572
3.23232
3.20923
3.18645
3.16403
3.142
3.12037
3.09921
3.07854
3.05842
3.03892
3.02008
3.00199
2.98471
2.96834
2.95294
2.93862
2.92547
2.91359
2.90306
2.89397
2.88642
2.88047
2.87617
2.87356
2.87263
2.87335
2.87561
2.87926
2.88407
2.88976
2.89596
2.90224
2.90814
2.91316
2.91682
2.91864
2.91821
2.91517
2.90925
2.90026
2.88809
2.87274
2.85425
2.83275
2.80842
2.78147
2.75216
2.72075
2.6875
2.65271
2.61662
2.57949
2.54154
2.50299
2.46402
2.42479
2.38542
2.34604
2.30674
2.2676
2.22869
2.19005
2.15174
2.11378
2.07621
2.03901
2.00235
1.9653
1.93293
1.87835
4.00157
3.9751
3.94861
3.9221
3.89559
3.86907
3.84255
3.81604
3.78954
3.76306
3.73661
3.71019
3.68382
3.6575
3.63124
3.60506
3.57896
3.55296
3.52706
3.50129
3.47564
3.45015
3.4248
3.39963
3.37464
3.34985
3.32526
3.30091
3.27679
3.25293
3.22935
3.20607
3.18311
3.1605
3.13826
3.11643
3.09506
3.07417
3.05381
3.03405
3.01493
2.99652
2.97889
2.96211
2.94625
2.93139
2.91762
2.90501
2.89366
2.88363
2.87501
2.86785
2.8622
2.8581
2.85554
2.85449
2.85488
2.85655
2.85932
2.86292
2.86702
2.87124
2.87514
2.87828
2.88019
2.88045
2.87866
2.87448
2.86764
2.85795
2.84532
2.8297
2.81114
2.78974
2.76565
2.73906
2.7102
2.6793
2.64661
2.61238
2.57686
2.54027
2.50284
2.46477
2.42622
2.38737
2.34834
2.30925
2.27019
2.23125
2.1925
2.154
2.11578
2.07789
2.04036
2.00318
1.96653
1.92947
1.89711
1.8425
4.00133
3.97484
3.94833
3.9218
3.89527
3.86872
3.84218
3.81564
3.78911
3.7626
3.7361
3.70964
3.68322
3.65684
3.63052
3.60426
3.57809
3.552
3.526
3.50012
3.47437
3.44875
3.42327
3.39796
3.37283
3.34788
3.32314
3.29862
3.27434
3.25031
3.22655
3.20309
3.17995
3.15715
3.13472
3.1127
3.09111
3.07001
3.04942
3.02941
3.01001
2.99129
2.97331
2.95613
2.93982
2.92444
2.91007
2.89678
2.88463
2.87371
2.86406
2.85575
2.84882
2.84331
2.83922
2.83652
2.83515
2.83499
2.83586
2.83753
2.8397
2.84202
2.8441
2.84551
2.84582
2.84464
2.84157
2.83631
2.8286
2.81824
2.80513
2.78924
2.7706
2.74929
2.72546
2.69926