/*--------------------------------*- C++ -*----------------------------------*\
| =========                 |                                                 |
| \\      /  F ield         | OpenFOAM: The Open Source CFD Toolbox           |
|  \\    /   O peration     | Version:  2.1.1                                 |
|   \\  /    A nd           | Web:      www.OpenFOAM.org                      |
|    \\/     M anipulation  |                                                 |
\*---------------------------------------------------------------------------*/
FoamFile
{
    version     2.0;
    format      ascii;
    class       volScalarField;
    location    "0.1";
    object      k;
}
// * * * * * * * * * * * * * * * * * * * * * * * * * * * * * * * * * * * * * //

dimensions      [0 2 -2 0 0 0 0];

internalField   nonuniform List<scalar> 
6820
(
0.288909
0.351398
0.415005
0.477466
0.536861
0.59156
0.640377
0.68264
0.718142
0.747057
0.76983
0.787077
0.799498
0.807813
0.812711
0.814827
0.814724
0.812887
0.809728
0.805589
0.80075
0.795437
0.78983
0.78407
0.778268
0.772506
0.766845
0.761342
0.755962
0.751025
0.745076
0.745106
0.717408
0.265532
0.269396
0.270522
0.27134
0.272557
0.274211
0.27622
0.278467
0.280844
0.283264
0.285671
0.288036
0.290348
0.292612
0.294843
0.29706
0.299281
0.301527
0.303811
0.306148
0.308547
0.311013
0.31355
0.316159
0.31884
0.321592
0.324416
0.327318
0.33031
0.333445
0.336748
0.340655
0.344842
0.262038
0.264254
0.263597
0.261558
0.259001
0.25632
0.253628
0.250939
0.248241
0.245526
0.242796
0.240063
0.237347
0.23467
0.232054
0.22952
0.227087
0.22477
0.222582
0.220532
0.218626
0.216868
0.215259
0.2138
0.212488
0.21132
0.210293
0.209404
0.208647
0.208026
0.207524
0.207173
0.206901
0.259885
0.260272
0.259796
0.258535
0.256829
0.254891
0.252834
0.25071
0.248548
0.24636
0.244154
0.241937
0.239717
0.237499
0.235292
0.233103
0.230939
0.228808
0.226717
0.22467
0.222674
0.220731
0.218846
0.217022
0.215259
0.21356
0.211925
0.210354
0.208846
0.207401
0.206017
0.204695
0.203424
0.259299
0.258404
0.2576
0.256567
0.255295
0.25385
0.252292
0.250662
0.248985
0.247278
0.245553
0.243817
0.242077
0.240339
0.238605
0.236882
0.235173
0.23348
0.231808
0.230159
0.228536
0.226941
0.225376
0.223844
0.222344
0.22088
0.219451
0.218057
0.2167
0.21538
0.214096
0.21285
0.211642
0.259224
0.257848
0.256622
0.255437
0.254227
0.25297
0.251663
0.250313
0.24893
0.247524
0.246102
0.244672
0.24324
0.241808
0.240381
0.238963
0.237554
0.236159
0.234779
0.233416
0.232071
0.230746
0.229442
0.22816
0.226901
0.225666
0.224456
0.22327
0.22211
0.220976
0.219868
0.218787
0.217733
0.259217
0.257715
0.256309
0.25498
0.253698
0.252442
0.251196
0.249951
0.248705
0.247456
0.246206
0.244957
0.243712
0.242472
0.24124
0.240017
0.238805
0.237606
0.236421
0.23525
0.234095
0.232957
0.231837
0.230735
0.229651
0.228586
0.227541
0.226516
0.225511
0.224527
0.223563
0.222621
0.221702
0.259218
0.25769
0.256225
0.254822
0.253477
0.252181
0.250924
0.249697
0.248492
0.247307
0.246138
0.244983
0.243841
0.242713
0.241598
0.240497
0.23941
0.238337
0.23728
0.236237
0.235211
0.234201
0.233207
0.23223
0.231269
0.230326
0.229401
0.228493
0.227602
0.22673
0.225875
0.225039
0.224222
0.259218
0.257686
0.256207
0.25478
0.253405
0.25208
0.2508
0.24956
0.248357
0.247186
0.246044
0.244926
0.243832
0.24276
0.241708
0.240675
0.239661
0.238665
0.237687
0.236726
0.235782
0.234856
0.233947
0.233055
0.23218
0.231321
0.230479
0.229654
0.228846
0.228054
0.227279
0.22652
0.225779
0.259218
0.257686
0.256203
0.254769
0.253384
0.252045
0.250751
0.2495
0.248289
0.247115
0.245976
0.244868
0.24379
0.24274
0.241716
0.240716
0.239739
0.238784
0.23785
0.236937
0.236043
0.235169
0.234313
0.233475
0.232655
0.231852
0.231066
0.230297
0.229545
0.228809
0.22809
0.227386
0.226699
0.259218
0.257685
0.256202
0.254767
0.253378
0.252035
0.250735
0.249478
0.24826
0.247081
0.245939
0.244831
0.243755
0.242711
0.241696
0.240708
0.239747
0.238811
0.237899
0.23701
0.236142
0.235296
0.23447
0.233664
0.232877
0.232108
0.231357
0.230624
0.229908
0.229209
0.228526
0.227859
0.227207
0.259218
0.257685
0.256201
0.254766
0.253376
0.252031
0.250729
0.249469
0.248249
0.247067
0.245921
0.244811
0.243734
0.24269
0.241677
0.240692
0.239736
0.238807
0.237903
0.237024
0.236169
0.235336
0.234525
0.233735
0.232965
0.232215
0.231484
0.230771
0.230076
0.229398
0.228738
0.228093
0.227464
0.259218
0.257685
0.256201
0.254765
0.253375
0.25203
0.250727
0.249466
0.248244
0.24706
0.245913
0.244801
0.243723
0.242678
0.241664
0.24068
0.239724
0.238796
0.237895
0.23702
0.236168
0.235341
0.234536
0.233753
0.232992
0.23225
0.231529
0.230826
0.230142
0.229476
0.228827
0.228195
0.227579
0.259218
0.257685
0.256201
0.254764
0.253374
0.252029
0.250726
0.249464
0.248241
0.247057
0.245909
0.244796
0.243717
0.242671
0.241656
0.240671
0.239715
0.238787
0.237886
0.237011
0.236161
0.235335
0.234533
0.233752
0.232993
0.232256
0.231538
0.23084
0.230161
0.2295
0.228856
0.22823
0.227621
0.259218
0.257685
0.2562
0.254764
0.253374
0.252028
0.250724
0.249462
0.248239
0.247055
0.245906
0.244793
0.243713
0.242667
0.241651
0.240665
0.239709
0.238781
0.237879
0.237004
0.236154
0.235328
0.234526
0.233746
0.232988
0.232251
0.231534
0.230838
0.23016
0.229501
0.22886
0.228236
0.227629
0.259218
0.257685
0.2562
0.254764
0.253373
0.252027
0.250723
0.249461
0.248238
0.247053
0.245904
0.24479
0.24371
0.242663
0.241647
0.240661
0.239704
0.238775
0.237874
0.236998
0.236147
0.235321
0.234519
0.233739
0.23298
0.232244
0.231527
0.230831
0.230154
0.229495
0.228854
0.228231
0.227625
0.259218
0.257685
0.2562
0.254763
0.253373
0.252026
0.250722
0.24946
0.248236
0.247051
0.245902
0.244788
0.243708
0.24266
0.241644
0.240657
0.2397
0.238771
0.237869
0.236993
0.236142
0.235315
0.234512
0.233732
0.232973
0.232236
0.23152
0.230823
0.230145
0.229487
0.228846
0.228223
0.227616
0.259218
0.257684
0.2562
0.254763
0.253372
0.252026
0.250722
0.249459
0.248235
0.247049
0.2459
0.244786
0.243705
0.242657
0.241641
0.240654
0.239696
0.238767
0.237864
0.236988
0.236137
0.23531
0.234506
0.233726
0.232967
0.232229
0.231512
0.230815
0.230137
0.229478
0.228837
0.228213
0.227607
0.259218
0.257684
0.2562
0.254763
0.253372
0.252025
0.250721
0.249458
0.248234
0.247048
0.245899
0.244784
0.243703
0.242655
0.241638
0.240651
0.239693
0.238763
0.23786
0.236984
0.236132
0.235305
0.234501
0.23372
0.232961
0.232223
0.231505
0.230808
0.23013
0.22947
0.228828
0.228204
0.227597
0.259218
0.257684
0.2562
0.254762
0.253371
0.252025
0.25072
0.249457
0.248233
0.247047
0.245897
0.244782
0.243701
0.242653
0.241635
0.240648
0.23969
0.23876
0.237857
0.23698
0.236128
0.2353
0.234496
0.233714
0.232955
0.232217
0.231499
0.230801
0.230122
0.229462
0.22882
0.228196
0.227588
0.259218
0.257684
0.256199
0.254762
0.253371
0.252024
0.25072
0.249456
0.248232
0.247046
0.245896
0.244781
0.2437
0.242651
0.241633
0.240646
0.239687
0.238757
0.237853
0.236976
0.236124
0.235296
0.234491
0.233709
0.232949
0.232211
0.231493
0.230794
0.230115
0.229455
0.228812
0.228187
0.227579
0.259218
0.257684
0.256199
0.254762
0.253371
0.252024
0.250719
0.249456
0.248231
0.247045
0.245895
0.244779
0.243698
0.242649
0.241631
0.240643
0.239685
0.238754
0.23785
0.236972
0.23612
0.235291
0.234487
0.233704
0.232944
0.232205
0.231487
0.230788
0.230109
0.229448
0.228805
0.228179
0.227571
0.259218
0.257684
0.256199
0.254762
0.253371
0.252024
0.250719
0.249455
0.248231
0.247044
0.245894
0.244778
0.243697
0.242647
0.241629
0.240641
0.239682
0.238751
0.237847
0.236969
0.236116
0.235288
0.234482
0.2337
0.232939
0.2322
0.231481
0.230782
0.230102
0.229441
0.228798
0.228172
0.227563
0.259218
0.257684
0.256199
0.254762
0.253371
0.252023
0.250719
0.249455
0.24823
0.247043
0.245893
0.244777
0.243695
0.242646
0.241627
0.240639
0.23968
0.238749
0.237844
0.236966
0.236113
0.235284
0.234479
0.233696
0.232935
0.232195
0.231476
0.230776
0.230096
0.229434
0.228791
0.228164
0.227555
0.259218
0.257684
0.256199
0.254762
0.25337
0.252023
0.250718
0.249454
0.24823
0.247043
0.245892
0.244776
0.243694
0.242644
0.241626
0.240637
0.239678
0.238746
0.237842
0.236963
0.23611
0.235281
0.234475
0.233692
0.232931
0.232191
0.231471
0.230771
0.23009
0.229428
0.228784
0.228157
0.227548
0.259218
0.257684
0.256199
0.254762
0.25337
0.252023
0.250718
0.249454
0.248229
0.247042
0.245891
0.244775
0.243693
0.242643
0.241625
0.240636
0.239676
0.238744
0.23784
0.236961
0.236107
0.235278
0.234472
0.233688
0.232927
0.232186
0.231466
0.230766
0.230085
0.229423
0.228778
0.228151
0.227541
0.259218
0.257684
0.256199
0.254762
0.25337
0.252023
0.250718
0.249454
0.248229
0.247042
0.245891
0.244775
0.243692
0.242642
0.241623
0.240634
0.239675
0.238743
0.237838
0.236959
0.236105
0.235275
0.234469
0.233685
0.232923
0.232182
0.231462
0.230762
0.23008
0.229417
0.228772
0.228145
0.227534
0.259218
0.257684
0.256199
0.254762
0.25337
0.252023
0.250718
0.249454
0.248229
0.247041
0.24589
0.244774
0.243692
0.242642
0.241622
0.240634
0.239673
0.238741
0.237836
0.236957
0.236103
0.235273
0.234466
0.233682
0.23292
0.232179
0.231458
0.230758
0.230076
0.229413
0.228767
0.228139
0.227528
0.259218
0.257684
0.256199
0.254762
0.25337
0.252023
0.250718
0.249453
0.248228
0.247041
0.24589
0.244773
0.243691
0.242641
0.241621
0.240632
0.239672
0.23874
0.237834
0.236955
0.236101
0.23527
0.234464
0.233679
0.232917
0.232176
0.231455
0.230754
0.230072
0.229408
0.228763
0.228135
0.227523
0.259218
0.257684
0.256199
0.254762
0.25337
0.252023
0.250718
0.249454
0.248229
0.247041
0.24589
0.244774
0.243691
0.242641
0.241622
0.240632
0.239672
0.23874
0.237834
0.236954
0.2361
0.23527
0.234463
0.233678
0.232915
0.232174
0.231453
0.230751
0.230069
0.229405
0.228759
0.228131
0.227519
0.259218
0.257684
0.256199
0.254762
0.25337
0.252023
0.250718
0.249453
0.248228
0.247041
0.24589
0.244773
0.243691
0.24264
0.241621
0.240632
0.239671
0.238739
0.237833
0.236954
0.236099
0.235269
0.234462
0.233677
0.232914
0.232172
0.231451
0.23075
0.230067
0.229403
0.228757
0.228128
0.227516
0.259218
0.257684
0.256199
0.254762
0.253371
0.252024
0.25072
0.249456
0.248231
0.247044
0.245893
0.244777
0.243694
0.242644
0.241625
0.240635
0.239675
0.238742
0.237837
0.236957
0.236102
0.235271
0.234464
0.233679
0.232916
0.232174
0.231452
0.23075
0.230068
0.229403
0.228756
0.228127
0.227515
0.259218
0.257685
0.2562
0.254764
0.253373
0.252026
0.250721
0.249457
0.248232
0.247045
0.245895
0.244779
0.243696
0.242646
0.241627
0.240638
0.239678
0.238745
0.23784
0.23696
0.236105
0.235274
0.234467
0.233682
0.232918
0.232176
0.231453
0.230751
0.230067
0.229402
0.228754
0.228124
0.22751
0.259218
0.257685
0.256201
0.254766
0.253378
0.252033
0.250731
0.249469
0.248246
0.24706
0.24591
0.244795
0.243712
0.242662
0.241643
0.240653
0.239692
0.238759
0.237852
0.236971
0.236115
0.235282
0.234473
0.233686
0.23292
0.232176
0.231451
0.230745
0.230059
0.22939
0.228739
0.228106
0.227488
0.259219
0.257689
0.25621
0.254777
0.25339
0.252046
0.250744
0.249482
0.248259
0.247074
0.245924
0.244808
0.243726
0.242675
0.241654
0.240663
0.2397
0.238763
0.237853
0.236968
0.236106
0.235268
0.234453
0.233659
0.232886
0.232133
0.2314
0.230686
0.22999
0.229312
0.228651
0.228007
0.227378
0.25922
0.257694
0.256221
0.254799
0.253423
0.252089
0.250795
0.249538
0.248318
0.247131
0.245978
0.244857
0.243766
0.242705
0.241673
0.240668
0.23969
0.238737
0.237809
0.236904
0.236023
0.235164
0.234327
0.23351
0.232714
0.231938
0.23118
0.230441
0.22972
0.229017
0.22833
0.22766
0.227005
0.259229
0.257738
0.256292
0.254882
0.253509
0.252172
0.250871
0.249604
0.248368
0.247162
0.245985
0.244836
0.243715
0.24262
0.24155
0.240506
0.239487
0.238492
0.23752
0.23657
0.235643
0.234738
0.233853
0.23299
0.232146
0.231322
0.230516
0.22973
0.228961
0.22821
0.227475
0.226758
0.226057
0.259265
0.257822
0.256453
0.255125
0.253804
0.252482
0.251163
0.249853
0.24856
0.247289
0.246043
0.244825
0.243636
0.242477
0.241346
0.240243
0.239169
0.238121
0.237099
0.236102
0.235129
0.23418
0.233253
0.232348
0.231465
0.230602
0.229759
0.228935
0.228131
0.227345
0.226577
0.225826
0.225093
0.259599
0.258632
0.257578
0.256542
0.255588
0.254714
0.253906
0.253152
0.252446
0.251785
0.251168
0.250595
0.250064
0.249575
0.249126
0.248717
0.248346
0.248011
0.247711
0.247443
0.247206
0.246998
0.246818
0.246664
0.246534
0.246427
0.246342
0.246277
0.246231
0.246204
0.246193
0.246199
0.246219
0.266719
0.28057
0.294241
0.307622
0.320668
0.333362
0.345692
0.357648
0.369223
0.380411
0.391208
0.401615
0.411633
0.421264
0.430512
0.439385
0.447888
0.456031
0.463821
0.471269
0.478383
0.485175
0.491655
0.497834
0.503723
0.509332
0.514672
0.519754
0.524589
0.529186
0.533555
0.537707
0.541654
0.84254
1.01262
1.19757
1.39958
1.61089
1.8154
1.99641
2.14206
2.24832
2.31844
2.36019
2.38274
2.39416
2.40007
2.40357
2.40596
2.40778
2.40949
2.4118
2.41558
2.42171
2.43083
2.44324
2.45892
2.47755
2.49862
2.52145
2.54532
2.56944
2.59301
2.6152
2.6352
2.65219
2.66533
2.6738
2.67676
2.67333
2.66261
2.64365
2.61546
2.57699
2.52715
2.46484
2.38897
2.29846
2.19241
2.0701
1.9312
1.77591
1.60529
1.42157
1.22863
1.03247
0.841618
0.66686
0.519567
0.408098
0.333814
0.290531
0.268647
0.259727
0.258091
0.260325
0.264434
0.26925
0.274096
0.278596
0.282562
0.285924
0.288687
0.290907
0.292662
0.294046
0.295158
0.296095
0.296946
0.297787
0.298677
0.299657
0.300745
0.30194
0.303223
0.304563
0.30592
0.30725
0.308508
0.309653
0.310652
0.311476
0.312109
0.312543
0.312775
0.312809
0.312646
0.312286
0.311724
0.310951
0.309891
0.308788
0.306002
0.352974
0.366167
0.387083
0.419804
0.468755
0.538205
0.631084
0.74786
0.885737
1.03849
1.19714
1.35139
1.49172
1.61129
1.70712
1.77999
1.83337
1.87199
1.90051
1.92272
1.9413
1.95793
1.97359
1.98884
2.004
2.01927
2.03472
2.05026
2.0657
2.08068
2.09473
2.10726
2.11762
2.12509
2.1289
2.12825
2.12229
2.1101
2.09078
2.06333
2.02677
1.98007
1.92227
1.85241
1.76971
1.67357
1.56377
1.44058
1.30503
1.15922
1.00661
0.852383
0.703524
0.568386
0.45518
0.369396
0.311423
0.276661
0.258353
0.25049
0.248868
0.250819
0.254679
0.2594
0.264324
0.269044
0.273326
0.277053
0.280186
0.282742
0.284772
0.28635
0.287561
0.288495
0.289241
0.289883
0.290496
0.291141
0.291864
0.292692
0.293634
0.294683
0.295815
0.296999
0.298196
0.299366
0.300467
0.301464
0.302328
0.303038
0.30358
0.303947
0.304137
0.304148
0.303975
0.303608
0.303037
0.302189
0.301283
0.298829
0.206475
0.206189
0.206573
0.208084
0.211281
0.216817
0.225837
0.239876
0.260828
0.29082
0.331922
0.385681
0.45272
0.53228
0.621868
0.717556
0.814612
0.908334
0.994844
1.07161
1.13762
1.19314
1.23933
1.27782
1.31027
1.33815
1.36265
1.38459
1.4045
1.42263
1.43903
1.45356
1.46596
1.47582
1.48261
1.48574
1.4845
1.47812
1.46578
1.44661
1.41973
1.38431
1.33956
1.28484
1.21972
1.14411
1.05838
0.963564
0.861542
0.755256
0.648809
0.547345
0.456476
0.381122
0.32402
0.284795
0.260479
0.247128
0.241206
0.240086
0.241953
0.245571
0.250096
0.25495
0.259743
0.264223
0.268235
0.271703
0.274604
0.276957
0.27881
0.280227
0.281284
0.282062
0.282642
0.283101
0.283511
0.283934
0.284418
0.284998
0.28569
0.286496
0.287403
0.28839
0.289422
0.290464
0.29148
0.292432
0.293291
0.294033
0.29464
0.295101
0.295409
0.295557
0.295537
0.295336
0.294942
0.294283
0.293555
0.291416
0.202018
0.200529
0.199142
0.197853
0.196699
0.195744
0.195085
0.194871
0.195325
0.196779
0.199688
0.204634
0.212211
0.223004
0.237709
0.256976
0.28127
0.310718
0.345013
0.383384
0.424678
0.467518
0.510492
0.552339
0.592075
0.629051
0.662947
0.693713
0.721485
0.746489
0.768967
0.789106
0.806996
0.822603
0.835756
0.846149
0.853353
0.856832
0.855972
0.850116
0.838605
0.82083
0.796294
0.764684
0.725958
0.680453
0.628987
0.572963
0.514428
0.456028
0.400795
0.351699
0.311029
0.27984
0.257803
0.243602
0.235546
0.232049
0.231805
0.233791
0.237223
0.241501
0.24617
0.250894
0.25543
0.259609
0.263327
0.266528
0.269199
0.271356
0.273041
0.27431
0.27523
0.275871
0.276306
0.276607
0.276839
0.277064
0.277331
0.277678
0.278128
0.278692
0.279367
0.280137
0.280979
0.281863
0.282755
0.283621
0.284432
0.285162
0.28579
0.286303
0.286688
0.286935
0.287033
0.286965
0.286718
0.286222
0.285652
0.283803
0.210286
0.208784
0.207305
0.205839
0.204387
0.20296
0.201573
0.200246
0.199007
0.197899
0.196991
0.196385
0.196176
0.196462
0.197358
0.198995
0.20151
0.205043
0.209726
0.215669
0.222943
0.231567
0.241498
0.252622
0.264767
0.27771
0.291204
0.304997
0.318859
0.332589
0.346024
0.359032
0.371495
0.383293
0.394279
0.404262
0.412991
0.42015
0.425367
0.42823
0.42832
0.425252
0.418727
0.408593
0.394901
0.377962
0.358383
0.337066
0.315151
0.293897
0.2745
0.257895
0.244626
0.234823
0.228294
0.224653
0.223437
0.224169
0.226394
0.229696
0.233708
0.238114
0.242651
0.247108
0.251325
0.255181
0.258599
0.261536
0.263982
0.265951
0.267477
0.268608
0.269403
0.269923
0.270232
0.270396
0.270475
0.270525
0.270597
0.270731
0.270954
0.271283
0.271724
0.27227
0.272904
0.273603
0.274339
0.275084
0.275807
0.276483
0.27709
0.277612
0.278033
0.27834
0.278518
0.278549
0.278418
0.278055
0.277618
0.276032
0.216539
0.215186
0.213832
0.21248
0.211128
0.209776
0.208425
0.207081
0.205752
0.20445
0.203188
0.201989
0.200878
0.199882
0.199032
0.19836
0.197898
0.197676
0.197724
0.198068
0.19873
0.199727
0.201068
0.202756
0.204783
0.207135
0.209788
0.212712
0.215872
0.219231
0.22275
0.226392
0.230121
0.233898
0.237677
0.241401
0.244995
0.24836
0.251371
0.253878
0.255715
0.25671
0.256711
0.255606
0.253354
0.250005
0.245717
0.240748
0.235439
0.230174
0.225334
0.221246
0.218158
0.216219
0.215481
0.215916
0.217423
0.219856
0.223035
0.226765
0.230853
0.235115
0.239383
0.243514
0.247391
0.250924
0.254049
0.256732
0.258962
0.260751
0.262127
0.26313
0.26381
0.264221
0.264421
0.264465
0.264411
0.26431
0.264211
0.264152
0.264166
0.264274
0.264486
0.264805
0.265221
0.265719
0.266276
0.266867
0.267468
0.268052
0.268599
0.269089
0.269505
0.269832
0.270052
0.270147
0.270097
0.269838
0.269507
0.268149
0.220655
0.219466
0.218269
0.217063
0.215848
0.214623
0.213392
0.212156
0.210921
0.20969
0.208471
0.207269
0.206093
0.204955
0.203865
0.202835
0.201877
0.201004
0.200227
0.199557
0.199003
0.198573
0.198272
0.198102
0.198064
0.198156
0.198374
0.198712
0.199163
0.199717
0.200366
0.2011
0.20191
0.202786
0.203718
0.204693
0.205696
0.206707
0.2077
0.20864
0.209487
0.210194
0.210716
0.211011
0.211051
0.210831
0.210376
0.209743
0.209025
0.20834
0.207825
0.207614
0.207831
0.20857
0.209889
0.211803
0.214289
0.217283
0.220699
0.224425
0.228344
0.232333
0.236276
0.240064
0.243606
0.246828
0.249676
0.252119
0.254146
0.255765
0.256999
0.257882
0.258456
0.258769
0.258871
0.258812
0.258642
0.258411
0.258161
0.257933
0.257758
0.257661
0.257657
0.257754
0.257951
0.258237
0.258598
0.259013
0.259462
0.259921
0.260371
0.260791
0.261164
0.261472
0.261697
0.261818
0.261815
0.261627
0.261374
0.260206
0.22329
0.222228
0.221155
0.22007
0.218974
0.217869
0.216756
0.215636
0.214513
0.21339
0.212269
0.211154
0.21005
0.20896
0.20789
0.206846
0.205832
0.204856
0.203921
0.203036
0.202203
0.201429
0.200717
0.20007
0.19949
0.198978
0.198534
0.198157
0.197846
0.197598
0.19741
0.197279
0.197202
0.197177
0.1972
0.197268
0.19738
0.19753
0.197716
0.197931
0.19817
0.198424
0.198686
0.19895
0.199212
0.199476
0.199755
0.200073
0.200466
0.200982
0.20168
0.20262
0.203859
0.205444
0.207405
0.209751
0.212466
0.215515
0.218838
0.222363
0.226006
0.229675
0.233279
0.236732
0.239956
0.242886
0.245477
0.247697
0.249535
0.250995
0.252097
0.252867
0.253344
0.253568
0.253582
0.253432
0.253163
0.252818
0.252439
0.252062
0.251719
0.251437
0.251233
0.25112
0.251101
0.251174
0.25133
0.251554
0.25183
0.252137
0.252459
0.252775
0.253069
0.253321
0.253514
0.253625
0.253634
0.253483
0.253277
0.252259
0.224933
0.223969
0.222994
0.222008
0.221012
0.220005
0.21899
0.217968
0.216941
0.215911
0.214881
0.213854
0.212832
0.211818
0.210815
0.209825
0.208851
0.207896
0.206963
0.206056
0.205176
0.204328
0.203513
0.202734
0.201993
0.201293
0.200633
0.200015
0.199439
0.198905
0.198413
0.197962
0.197552
0.197184
0.196855
0.196569
0.196324
0.196123
0.195966
0.195858
0.1958
0.195795
0.195849
0.195967
0.196157
0.196429
0.196797
0.197281
0.197904
0.198694
0.199683
0.200902
0.20238
0.204141
0.206198
0.208551
0.211186
0.214074
0.21717
0.220417
0.223748
0.227091
0.230367
0.233504
0.236432
0.239095
0.241448
0.243463
0.245126
0.246441
0.247419
0.248086
0.248473
0.248615
0.248551
0.248321
0.247966
0.247524
0.247033
0.246527
0.246037
0.245589
0.245204
0.244896
0.244674
0.244539
0.244489
0.244514
0.244601
0.244737
0.244906
0.24509
0.245273
0.245437
0.245563
0.245629
0.245616
0.245468
0.24528
0.244367
0.225915
0.225022
0.224119
0.223207
0.222285
0.221354
0.220415
0.21947
0.21852
0.217567
0.216613
0.21566
0.21471
0.213765
0.212826
0.211897
0.210977
0.210069
0.209174
0.208295
0.207432
0.206588
0.205764
0.204962
0.204183
0.203429
0.202702
0.202002
0.20133
0.200687
0.200074
0.199493
0.198943
0.198426
0.197944
0.197497
0.19709
0.196724
0.196405
0.196136
0.195923
0.195773
0.195695
0.195697
0.195792
0.19599
0.196309
0.196765
0.197377
0.198166
0.199153
0.200359
0.201803
0.203496
0.205444
0.207644
0.210082
0.212732
0.215557
0.218509
0.221532
0.224562
0.227532
0.230376
0.233033
0.235451
0.237587
0.239415
0.240918
0.242098
0.242963
0.243535
0.243839
0.243907
0.243773
0.243473
0.243042
0.242516
0.241929
0.241313
0.240696
0.240104
0.239558
0.239074
0.238663
0.238331
0.23808
0.237905
0.237799
0.237751
0.237749
0.237779
0.237825
0.237872
0.2379
0.23789
0.237822
0.237645
0.237444
0.236591
0.226466
0.225622
0.22477
0.223911
0.223043
0.222168
0.221286
0.220398
0.219506
0.218611
0.217715
0.216819
0.215926
0.215035
0.21415
0.213271
0.212399
0.211535
0.210681
0.209838
0.209006
0.208186
0.207379
0.206588
0.205812
0.205052
0.204311
0.203588
0.202886
0.202204
0.201545
0.20091
0.2003
0.199717
0.199162
0.19864
0.198152
0.197703
0.197297
0.19694
0.19664
0.196402
0.196238
0.196156
0.196168
0.196288
0.19653
0.19691
0.197445
0.198152
0.199048
0.200149
0.201467
0.203012
0.204786
0.206784
0.208993
0.211391
0.213944
0.216612
0.219344
0.222084
0.224772
0.22735
0.22976
0.231954
0.233893
0.235548
0.236906
0.237962
0.238724
0.239208
0.239437
0.239438
0.239242
0.238879
0.238383
0.237785
0.237116
0.236406
0.23568
0.234963
0.234276
0.233635
0.233054
0.232541
0.232101
0.231733
0.231434
0.231198
0.231015
0.230875
0.230766
0.230672
0.230578
0.230464
0.230312
0.230075
0.229833
0.228994
0.226749
0.225937
0.225119
0.224294
0.223463
0.222626
0.221784
0.220936
0.220086
0.219232
0.218378
0.217524
0.216672
0.215822
0.214976
0.214135
0.2133
0.212472
0.211651
0.210838
0.210034
0.209239
0.208455
0.20768
0.206918
0.206168
0.20543
0.204707
0.203999
0.203307
0.202633
0.201977
0.201342
0.200729
0.20014
0.19958
0.19905
0.198556
0.198102
0.197694
0.197339
0.197045
0.19682
0.196675
0.196621
0.196671
0.196838
0.197136
0.197581
0.198188
0.198972
0.199945
0.201119
0.202499
0.204087
0.20588
0.207864
0.210019
0.212317
0.214721
0.217185
0.219661
0.222093
0.224428
0.226613
0.228604
0.230362
0.231861
0.233084
0.234027
0.234694
0.235099
0.235259
0.2352
0.234948
0.234531
0.233978
0.233319
0.23258
0.231789
0.230971
0.230147
0.229339
0.228562
0.227831
0.227154
0.22654
0.225991
0.225507
0.225085
0.22472
0.224404
0.224126
0.223876
0.22364
0.223399
0.223139
0.222814
0.222506
0.221637
0.226879
0.226086
0.225287
0.224484
0.223676
0.222863
0.222045
0.221225
0.220401
0.219576
0.218749
0.217923
0.217099
0.216277
0.215459
0.214644
0.213835
0.213032
0.212235
0.211444
0.210661
0.209885
0.209118
0.20836
0.20761
0.206871
0.206142
0.205424
0.204719
0.204026
0.203348
0.202686
0.20204
0.201414
0.20081
0.20023
0.199678
0.199158
0.198675
0.198235
0.197844
0.19751
0.197242
0.197049
0.196941
0.196931
0.197031
0.197254
0.197613
0.198123
0.198797
0.199645
0.200677
0.201898
0.203311
0.20491
0.206684
0.208617
0.210681
0.212844
0.215066
0.217301
0.219501
0.221615
0.223595
0.2254
0.226992
0.228347
0.229447
0.230287
0.230867
0.231198
0.231297
0.231184
0.230882
0.230418
0.229816
0.229104
0.228306
0.227448
0.226551
0.225638
0.224726
0.223833
0.222971
0.222151
0.221381
0.220667
0.220011
0.219412
0.218869
0.218376
0.217927
0.217512
0.21712
0.216736
0.216348
0.215914
0.215517
0.214578
0.226929
0.226145
0.225357
0.224565
0.22377
0.22297
0.222168
0.221363
0.220555
0.219747
0.218938
0.218129
0.217322
0.216517
0.215716
0.214918
0.214125
0.213337
0.212554
0.211778
0.211008
0.210245
0.209489
0.208741
0.208001
0.20727
0.206548
0.205835
0.205133
0.204442
0.203763
0.203099
0.202449
0.201817
0.201204
0.200613
0.200048
0.199512
0.199011
0.198549
0.198133
0.197771
0.197469
0.197237
0.197086
0.197025
0.197067
0.197223
0.197506
0.197927
0.1985
0.199233
0.200135
0.201211
0.202462
0.203884
0.205468
0.207198
0.20905
0.210995
0.212997
0.215014
0.217001
0.218914
0.220707
0.222341
0.223781
0.225004
0.22599
0.226733
0.227234
0.227498
0.227541
0.227379
0.227034
0.226528
0.225884
0.225127
0.22428
0.223365
0.222404
0.221415
0.220417
0.219425
0.218451
0.217507
0.216602
0.215742
0.21493
0.214168
0.213457
0.212794
0.212175
0.211594
0.211041
0.210505
0.209976
0.209416
0.208915
0.20787
0.226941
0.226161
0.225378
0.224592
0.223802
0.22301
0.222215
0.221418
0.22062
0.21982
0.21902
0.218221
0.217423
0.216628
0.215835
0.215046
0.214261
0.213481
0.212706
0.211936
0.211173
0.210416
0.209666
0.208923
0.208187
0.20746
0.20674
0.20603
0.205329
0.204639
0.20396
0.203293
0.202641
0.202004
0.201386
0.200788
0.200213
0.199667
0.199152
0.198674
0.19824
0.197854
0.197526
0.197263
0.197075
0.196971
0.196963
0.19706
0.197274
0.197617
0.198098
0.198727
0.199511
0.200455
0.20156
0.202822
0.204233
0.205779
0.207439
0.209186
0.210988
0.212806
0.2146
0.216328
0.217949
0.219425
0.220726
0.221825
0.222706
0.223361
0.223787
0.22399
0.223981
0.223776
0.223392
0.22285
0.222171
0.221376
0.220487
0.219526
0.21851
0.217459
0.216389
0.215315
0.214248
0.213199
0.212178
0.211191
0.210242
0.209334
0.208471
0.20765
0.20687
0.206127
0.205416
0.204725
0.20405
0.203354
0.202736
0.201557
0.226937
0.226159
0.225378
0.224594
0.223807
0.223017
0.222226
0.221433
0.220638
0.219842
0.219047
0.218251
0.217458
0.216666
0.215876
0.21509
0.214308
0.21353
0.212757
0.211989
0.211227
0.210471
0.209722
0.208979
0.208244
0.207516
0.206796
0.206084
0.205382
0.20469
0.204008
0.203339
0.202683
0.202042
0.201418
0.200814
0.200232
0.199676
0.199151
0.19866
0.198209
0.197806
0.197455
0.197166
0.196946
0.196804
0.196751
0.196796
0.196949
0.19722
0.197619
0.198154
0.198831
0.199655
0.200627
0.201744
0.202999
0.204378
0.205862
0.207429
0.209047
0.210683
0.212299
0.213857
0.215319
0.216651
0.217821
0.218806
0.219589
0.22016
0.220517
0.220664
0.220608
0.220363
0.219945
0.219371
0.218661
0.217835
0.216913
0.215913
0.214853
0.213752
0.212623
0.211481
0.210337
0.209202
0.208083
0.206988
0.205921
0.204888
0.203889
0.202926
0.202
0.201106
0.200243
0.199403
0.198581
0.197746
0.197006
0.195675
0.226929
0.22615
0.225369
0.224586
0.223799
0.223011
0.22222
0.221428
0.220634
0.21984
0.219045
0.218251
0.217458
0.216666
0.215877
0.21509
0.214307
0.213528
0.212754
0.211984
0.21122
0.210461
0.209709
0.208963
0.208224
0.207493
0.206769
0.206054
0.205348
0.204651
0.203965
0.203291
0.20263
0.201984
0.201354
0.200743
0.200154
0.19959
0.199054
0.198551
0.198087
0.197666
0.197296
0.196982
0.196734
0.196558
0.196465
0.196462
0.19656
0.196766
0.19709
0.197539
0.198119
0.198834
0.199685
0.200669
0.20178
0.203005
0.204329
0.20573
0.20718
0.208649
0.210101
0.211502
0.212817
0.214013
0.215062
0.21594
0.216631
0.217124
0.217417
0.217509
0.21741
0.217129
0.21668
0.216079
0.215344
0.214492
0.213542
0.212511
0.211417
0.210274
0.209099
0.207902
0.206696
0.205489
0.204291
0.203106
0.201942
0.200801
0.199686
0.1986
0.197543
0.196514
0.195512
0.194532
0.193572
0.1926
0.19174
0.190246
0.226919
0.22614
0.225359
0.224574
0.223788
0.222999
0.222209
0.221416
0.220622
0.219828
0.219032
0.218237
0.217443
0.21665
0.215859
0.21507
0.214284
0.213502
0.212724
0.21195
0.211181
0.210418
0.209661
0.20891
0.208165
0.207428
0.206699
0.205978
0.205266
0.204563
0.203871
0.203191
0.202523
0.20187
0.201234
0.200615
0.200018
0.199445
0.198899
0.198385
0.197907
0.19747
0.197081
0.196745
0.196471
0.196264
0.196133
0.196087
0.196133
0.19628
0.196534
0.196904
0.197394
0.198008
0.198747
0.199609
0.200587
0.201672
0.202849
0.204096
0.205391
0.206705
0.208006
0.209261
0.210439
0.211509
0.212443
0.21322
0.213824
0.214244
0.214474
0.214517
0.214376
0.214061
0.213585
0.21296
0.212204
0.211331
0.21036
0.209305
0.208184
0.20701
0.205798
0.204558
0.203303
0.20204
0.200777
0.19952
0.198275
0.197045
0.195834
0.194643
0.193475
0.192328
0.191204
0.190097
0.18901
0.187912
0.186938
0.185279
0.226909
0.226129
0.225347
0.224563
0.223775
0.222986
0.222195
0.221401
0.220607
0.219811
0.219015
0.218218
0.217422
0.216627
0.215833
0.215041
0.214251
0.213465
0.212682
0.211904
0.211129
0.21036
0.209597
0.208839
0.208088
0.207344
0.206608
0.20588
0.20516
0.204451
0.203751
0.203064
0.202389
0.201728
0.201084
0.200457
0.199851
0.199268
0.198712
0.198186
0.197695
0.197243
0.196835
0.196479
0.196179
0.195942
0.195777
0.195689
0.195687
0.195778
0.195968
0.196265
0.196671
0.197192
0.197827
0.198575
0.199431
0.200385
0.201424
0.20253
0.203681
0.204851
0.20601
0.20713
0.208179
0.20913
0.209957
0.210638
0.211159
0.211508
0.211679
0.211673
0.211494
0.211148
0.210646
0.210002
0.209228
0.20834
0.207352
0.206281
0.20514
0.203943
0.202703
0.201432
0.200138
0.198832
0.197519
0.196205
0.194895
0.193594
0.192304
0.191027
0.189766
0.18852
0.187291
0.186075
0.184876
0.183663
0.182587
0.180772
0.226899
0.226119
0.225336
0.224551
0.223763
0.222973
0.22218
0.221386
0.22059
0.219793
0.218995
0.218197
0.217399
0.216601
0.215804
0.215009
0.214215
0.213425
0.212637
0.211853
0.211073
0.210298
0.209528
0.208764
0.208006
0.207254
0.20651
0.205774
0.205047
0.204329
0.203622
0.202926
0.202243
0.201574
0.200921
0.200286
0.199671
0.199078
0.198511
0.197973
0.197468
0.197001
0.196576
0.196199
0.195875
0.19561
0.195411
0.195284
0.195237
0.195275
0.195404
0.195631
0.195959
0.196392
0.196931
0.197573
0.198314
0.199147
0.200059
0.201033
0.20205
0.203085
0.204112
0.205104
0.206032
0.20687
0.207594
0.208184
0.208625
0.208906
0.20902
0.208967
0.20875
0.208375
0.207851
0.20719
0.206402
0.205503
0.204506