/*--------------------------------*- C++ -*----------------------------------*\
| =========                 |                                                 |
| \\      /  F ield         | OpenFOAM: The Open Source CFD Toolbox           |
|  \\    /   O peration     | Version:  2.1.1                                 |
|   \\  /    A nd           | Web:      www.OpenFOAM.org                      |
|    \\/     M anipulation  |                                                 |
\*---------------------------------------------------------------------------*/
FoamFile
{
    version     2.0;
    format      ascii;
    class       volScalarField;
    location    "0.1";
    object      nut;
}
// * * * * * * * * * * * * * * * * * * * * * * * * * * * * * * * * * * * * * //

dimensions      [0 2 -1 0 0 0 0];

internalField   nonuniform List<scalar> 
6820
(
4.96025e-05
5.47044e-05
5.94497e-05
6.37668e-05
6.76167e-05
7.09778e-05
7.38484e-05
7.62463e-05
7.82038e-05
7.97627e-05
8.09693e-05
8.18713e-05
8.25148e-05
8.29428e-05
8.31939e-05
8.33021e-05
8.32968e-05
8.32029e-05
8.30411e-05
8.28286e-05
8.25795e-05
8.23051e-05
8.20146e-05
8.1715e-05
8.14121e-05
8.11103e-05
8.08126e-05
8.05221e-05
8.02372e-05
7.99749e-05
7.96575e-05
7.96593e-05
7.81647e-05
0.000540295
0.000304976
0.000219966
0.000171565
0.000140528
0.000119666
0.000105141
9.47569e-05
8.71925e-05
8.16109e-05
7.74618e-05
7.43716e-05
7.20798e-05
7.04002e-05
6.91975e-05
6.83714e-05
6.78463e-05
6.75645e-05
6.74813e-05
6.75615e-05
6.77771e-05
6.81055e-05
6.8528e-05
6.90293e-05
6.95966e-05
7.02186e-05
7.08858e-05
7.15892e-05
7.23216e-05
7.3071e-05
7.38339e-05
7.45822e-05
7.52314e-05
0.00105857
0.000836084
0.000679233
0.000569608
0.000490047
0.00043011
0.000383695
0.00034685
0.000316951
0.000292236
0.000271492
0.000253855
0.000238699
0.000225555
0.000214068
0.000203962
0.000195019
0.000187066
0.000179963
0.000173594
0.000167865
0.000162696
0.000158021
0.000153782
0.000149932
0.00014643
0.000143239
0.000140329
0.000137673
0.000135251
0.000133027
0.000131042
0.000129006
0.00115953
0.00109653
0.00101166
0.000926409
0.000849799
0.000783605
0.000727047
0.000678714
0.00063719
0.000601252
0.000569898
0.000542325
0.000517892
0.000496091
0.000476514
0.000458833
0.000442782
0.000428142
0.000414734
0.000402407
0.000391034
0.000380509
0.00037074
0.000361649
0.000353168
0.00034524
0.000337815
0.000330848
0.000324307
0.000318158
0.000312391
0.000306974
0.000301949
0.00116966
0.00115863
0.00113363
0.00109757
0.00105569
0.0010122
0.000969671
0.000929414
0.000891973
0.000857473
0.000825823
0.000796833
0.000770275
0.000745918
0.000723541
0.000702939
0.000683931
0.000666352
0.000650058
0.000634921
0.000620829
0.000607681
0.000595389
0.000583875
0.000573069
0.00056291
0.000553341
0.000544315
0.000535786
0.000527718
0.00052008
0.000512843
0.000505993
0.00117006
0.00116839
0.00116306
0.00115261
0.00113713
0.00111768
0.00109554
0.00107192
0.00104772
0.00102361
0.00100002
0.000977211
0.000955349
0.000934512
0.000914726
0.000895985
0.00087826
0.000861512
0.000845692
0.00083075
0.000816633
0.000803289
0.00079067
0.000778727
0.000767415
0.000756693
0.000746519
0.000736858
0.000727675
0.000718938
0.00071062
0.000702702
0.000695158
0.00116996
0.00116938
0.00116821
0.00116569
0.00116123
0.00115458
0.00114584
0.00113528
0.00112329
0.00111025
0.00109651
0.00108236
0.00106805
0.00105377
0.00103964
0.00102577
0.00101224
0.000999088
0.000986358
0.000974065
0.000962218
0.000950818
0.00093986
0.000929337
0.000919236
0.000909546
0.00090025
0.000891334
0.000882781
0.000874578
0.000866711
0.000859168
0.000851937
0.00116994
0.0011694
0.00116883
0.00116803
0.00116674
0.00116472
0.0011618
0.00115791
0.00115305
0.00114729
0.00114075
0.00113356
0.00112584
0.00111772
0.00110932
0.00110074
0.00109205
0.00108333
0.00107464
0.00106603
0.00105752
0.00104916
0.00104096
0.00103295
0.00102512
0.0010175
0.00101009
0.00100289
0.000995898
0.000989121
0.000982556
0.000976203
0.00097006
0.00116994
0.00116939
0.00116886
0.00116832
0.0011677
0.00116692
0.00116588
0.00116449
0.00116269
0.00116044
0.00115772
0.00115456
0.00115098
0.00114703
0.00114274
0.00113817
0.00113337
0.00112838
0.00112325
0.00111801
0.0011127
0.00110734
0.00110198
0.00109662
0.0010913
0.00108602
0.0010808
0.00107565
0.00107059
0.00106561
0.00106073
0.00105596
0.00105129
0.00116994
0.00116938
0.00116885
0.00116833
0.00116782
0.00116729
0.00116671
0.00116605
0.00116526
0.00116432
0.00116319
0.00116186
0.0011603
0.00115853
0.00115655
0.00115436
0.00115199
0.00114944
0.00114674
0.0011439
0.00114095
0.00113791
0.00113478
0.00113159
0.00112836
0.00112509
0.0011218
0.00111851
0.00111522
0.00111193
0.00110868
0.00110544
0.00110225
0.00116994
0.00116938
0.00116884
0.00116832
0.00116782
0.00116732
0.00116683
0.00116634
0.00116582
0.00116527
0.00116467
0.00116399
0.00116324
0.0011624
0.00116147
0.00116043
0.00115928
0.00115804
0.0011567
0.00115526
0.00115374
0.00115214
0.00115046
0.00114872
0.00114692
0.00114507
0.00114317
0.00114125
0.00113929
0.00113732
0.00113533
0.00113333
0.00113133
0.00116994
0.00116938
0.00116884
0.00116832
0.00116781
0.00116732
0.00116684
0.00116637
0.00116591
0.00116545
0.00116499
0.00116452
0.00116402
0.00116351
0.00116296
0.00116238
0.00116176
0.0011611
0.00116039
0.00115964
0.00115884
0.00115799
0.0011571
0.00115617
0.0011552
0.0011542
0.00115316
0.00115208
0.00115099
0.00114986
0.00114872
0.00114756
0.00114639
0.00116994
0.00116938
0.00116884
0.00116832
0.00116781
0.00116732
0.00116684
0.00116637
0.00116592
0.00116547
0.00116504
0.00116461
0.00116419
0.00116377
0.00116335
0.00116292
0.00116249
0.00116204
0.00116158
0.00116111
0.00116062
0.00116012
0.00115959
0.00115905
0.00115849
0.00115791
0.00115732
0.00115671
0.00115608
0.00115544
0.00115478
0.00115411
0.00115343
0.00116994
0.00116938
0.00116884
0.00116832
0.00116781
0.00116731
0.00116683
0.00116637
0.00116591
0.00116547
0.00116504
0.00116462
0.00116422
0.00116382
0.00116343
0.00116304
0.00116266
0.00116228
0.00116191
0.00116153
0.00116116
0.00116078
0.00116041
0.00116003
0.00115964
0.00115925
0.00115886
0.00115846
0.00115806
0.00115765
0.00115723
0.00115682
0.0011564
0.00116994
0.00116938
0.00116884
0.00116832
0.00116781
0.00116731
0.00116683
0.00116636
0.00116591
0.00116547
0.00116504
0.00116462
0.00116421
0.00116382
0.00116343
0.00116306
0.00116269
0.00116233
0.00116198
0.00116163
0.0011613
0.00116096
0.00116063
0.00116031
0.00115999
0.00115967
0.00115936
0.00115904
0.00115873
0.00115843
0.00115812
0.00115781
0.00115751
0.00116994
0.00116938
0.00116884
0.00116831
0.0011678
0.00116731
0.00116683
0.00116636
0.0011659
0.00116546
0.00116503
0.00116461
0.00116421
0.00116381
0.00116343
0.00116305
0.00116269
0.00116233
0.00116199
0.00116165
0.00116132
0.001161
0.00116068
0.00116038
0.00116007
0.00115978
0.00115949
0.00115921
0.00115893
0.00115866
0.00115839
0.00115813
0.00115787
0.00116994
0.00116938
0.00116884
0.00116831
0.0011678
0.00116731
0.00116683
0.00116636
0.0011659
0.00116546
0.00116503
0.00116461
0.0011642
0.00116381
0.00116342
0.00116305
0.00116268
0.00116232
0.00116198
0.00116164
0.00116131
0.001161
0.00116068
0.00116038
0.00116009
0.0011598
0.00115952
0.00115924
0.00115898
0.00115872
0.00115846
0.00115821
0.00115797
0.00116994
0.00116938
0.00116884
0.00116831
0.0011678
0.00116731
0.00116682
0.00116635
0.0011659
0.00116546
0.00116502
0.00116461
0.0011642
0.0011638
0.00116341
0.00116304
0.00116267
0.00116232
0.00116197
0.00116163
0.00116131
0.00116099
0.00116068
0.00116037
0.00116008
0.00115979
0.00115951
0.00115924
0.00115898
0.00115872
0.00115847
0.00115822
0.00115798
0.00116994
0.00116938
0.00116884
0.00116831
0.0011678
0.0011673
0.00116682
0.00116635
0.0011659
0.00116545
0.00116502
0.0011646
0.00116419
0.0011638
0.00116341
0.00116303
0.00116267
0.00116231
0.00116196
0.00116163
0.0011613
0.00116098
0.00116067
0.00116036
0.00116007
0.00115978
0.0011595
0.00115923
0.00115896
0.00115871
0.00115846
0.00115821
0.00115797
0.00116994
0.00116938
0.00116884
0.00116831
0.0011678
0.0011673
0.00116682
0.00116635
0.00116589
0.00116545
0.00116502
0.0011646
0.00116419
0.00116379
0.00116341
0.00116303
0.00116266
0.00116231
0.00116196
0.00116162
0.00116129
0.00116097
0.00116066
0.00116035
0.00116006
0.00115977
0.00115949
0.00115922
0.00115895
0.00115869
0.00115844
0.0011582
0.00115796
0.00116994
0.00116938
0.00116884
0.00116831
0.0011678
0.0011673
0.00116682
0.00116635
0.00116589
0.00116545
0.00116502
0.0011646
0.00116419
0.00116379
0.0011634
0.00116302
0.00116266
0.0011623
0.00116195
0.00116161
0.00116128
0.00116096
0.00116065
0.00116034
0.00116005
0.00115976
0.00115948
0.00115921
0.00115894
0.00115868
0.00115843
0.00115818
0.00115794
0.00116994
0.00116938
0.00116884
0.00116831
0.0011678
0.0011673
0.00116682
0.00116635
0.00116589
0.00116545
0.00116501
0.00116459
0.00116418
0.00116379
0.0011634
0.00116302
0.00116265
0.00116229
0.00116195
0.00116161
0.00116128
0.00116095
0.00116064
0.00116034
0.00116004
0.00115975
0.00115947
0.00115919
0.00115893
0.00115867
0.00115841
0.00115817
0.00115793
0.00116994
0.00116938
0.00116884
0.00116831
0.0011678
0.0011673
0.00116682
0.00116635
0.00116589
0.00116545
0.00116501
0.00116459
0.00116418
0.00116378
0.00116339
0.00116302
0.00116265
0.00116229
0.00116194
0.0011616
0.00116127
0.00116095
0.00116063
0.00116033
0.00116003
0.00115974
0.00115946
0.00115918
0.00115892
0.00115865
0.0011584
0.00115815
0.00115791
0.00116994
0.00116938
0.00116884
0.00116831
0.0011678
0.0011673
0.00116682
0.00116635
0.00116589
0.00116544
0.00116501
0.00116459
0.00116418
0.00116378
0.00116339
0.00116301
0.00116264
0.00116229
0.00116194
0.0011616
0.00116126
0.00116094
0.00116063
0.00116032
0.00116002
0.00115973
0.00115945
0.00115917
0.00115891
0.00115864
0.00115839
0.00115814
0.0011579
0.00116994
0.00116938
0.00116884
0.00116831
0.0011678
0.0011673
0.00116682
0.00116635
0.00116589
0.00116544
0.00116501
0.00116459
0.00116418
0.00116378
0.00116339
0.00116301
0.00116264
0.00116228
0.00116193
0.00116159
0.00116126
0.00116094
0.00116062
0.00116031
0.00116002
0.00115972
0.00115944
0.00115916
0.0011589
0.00115863
0.00115838
0.00115813
0.00115789
0.00116994
0.00116938
0.00116884
0.00116831
0.0011678
0.0011673
0.00116682
0.00116635
0.00116589
0.00116544
0.00116501
0.00116459
0.00116418
0.00116378
0.00116339
0.00116301
0.00116264
0.00116228
0.00116193
0.00116159
0.00116126
0.00116093
0.00116062
0.00116031
0.00116001
0.00115972
0.00115943
0.00115916
0.00115889
0.00115862
0.00115837
0.00115812
0.00115787
0.00116994
0.00116938
0.00116884
0.00116831
0.0011678
0.0011673
0.00116682
0.00116635
0.00116589
0.00116544
0.00116501
0.00116459
0.00116417
0.00116377
0.00116338
0.00116301
0.00116264
0.00116228
0.00116193
0.00116158
0.00116125
0.00116093
0.00116061
0.0011603
0.00116
0.00115971
0.00115943
0.00115915
0.00115888
0.00115861
0.00115836
0.00115811
0.00115786
0.00116994
0.00116938
0.00116884
0.00116831
0.0011678
0.0011673
0.00116682
0.00116635
0.00116589
0.00116544
0.00116501
0.00116458
0.00116417
0.00116377
0.00116338
0.001163
0.00116263
0.00116227
0.00116192
0.00116158
0.00116125
0.00116092
0.00116061
0.0011603
0.00116
0.0011597
0.00115942
0.00115914
0.00115887
0.00115861
0.00115835
0.0011581
0.00115785
0.00116994
0.00116938
0.00116884
0.00116831
0.0011678
0.0011673
0.00116682
0.00116634
0.00116589
0.00116544
0.00116501
0.00116458
0.00116417
0.00116377
0.00116338
0.001163
0.00116263
0.00116227
0.00116192
0.00116158
0.00116125
0.00116092
0.0011606
0.00116029
0.00115999
0.0011597
0.00115941
0.00115914
0.00115886
0.0011586
0.00115834
0.00115809
0.00115784
0.00116994
0.00116938
0.00116884
0.00116831
0.0011678
0.0011673
0.00116682
0.00116635
0.00116589
0.00116544
0.00116501
0.00116459
0.00116417
0.00116377
0.00116338
0.001163
0.00116263
0.00116227
0.00116192
0.00116158
0.00116124
0.00116092
0.0011606
0.00116029
0.00115999
0.0011597
0.00115941
0.00115913
0.00115886
0.00115859
0.00115833
0.00115808
0.00115784
0.00116994
0.00116938
0.00116884
0.00116831
0.0011678
0.0011673
0.00116682
0.00116635
0.00116589
0.00116544
0.00116501
0.00116459
0.00116418
0.00116378
0.00116339
0.00116301
0.00116264
0.00116227
0.00116192
0.00116158
0.00116125
0.00116092
0.0011606
0.00116029
0.00115999
0.0011597
0.00115941
0.00115913
0.00115885
0.00115859
0.00115833
0.00115807
0.00115782
0.00116994
0.00116938
0.00116884
0.00116831
0.0011678
0.00116731
0.00116682
0.00116635
0.0011659
0.00116545
0.00116502
0.0011646
0.00116418
0.00116378
0.00116339
0.00116301
0.00116264
0.00116228
0.00116193
0.00116158
0.00116125
0.00116092
0.0011606
0.00116028
0.00115998
0.00115968
0.00115939
0.0011591
0.00115882
0.00115854
0.00115827
0.00115801
0.00115775
0.00116994
0.00116938
0.00116884
0.00116832
0.00116781
0.00116731
0.00116683
0.00116636
0.0011659
0.00116546
0.00116502
0.0011646
0.00116419
0.00116379
0.0011634
0.00116301
0.00116263
0.00116227
0.0011619
0.00116155
0.0011612
0.00116085
0.00116052
0.00116018
0.00115986
0.00115953
0.00115921
0.0011589
0.00115858
0.00115827
0.00115797
0.00115767
0.00115737
0.00116994
0.00116938
0.00116884
0.00116833
0.00116782
0.00116733
0.00116685
0.00116639
0.00116593
0.00116548
0.00116503
0.00116459
0.00116416
0.00116373
0.00116331
0.00116288
0.00116246
0.00116204
0.00116161
0.00116119
0.00116076
0.00116033
0.0011599
0.00115946
0.00115902
0.00115858
0.00115814
0.00115769
0.00115724
0.00115678
0.00115632
0.00115586
0.0011554
0.00116994
0.00116939
0.00116886
0.00116835
0.00116784
0.00116733
0.00116683
0.00116632
0.00116581
0.00116528
0.00116473
0.00116417
0.00116358
0.00116297
0.00116233
0.00116166
0.00116097
0.00116024
0.00115949
0.00115871
0.0011579
0.00115707
0.00115621
0.00115532
0.00115442
0.00115349
0.00115255
0.00115159
0.00115061
0.00114962
0.00114862
0.00114761
0.00114659
0.00116995
0.0011694
0.00116886
0.00116828
0.00116765
0.00116694
0.00116613
0.00116519
0.00116414
0.00116295
0.00116163
0.00116018
0.0011586
0.0011569
0.00115508
0.00115315
0.00115113
0.00114902
0.00114682
0.00114456
0.00114223
0.00113985
0.00113743
0.00113497
0.00113248
0.00112996
0.00112743
0.00112489
0.00112234
0.00111979
0.00111725
0.00111472
0.00111219
0.00116996
0.00116916
0.00116786
0.00116595
0.00116344
0.00116031
0.00115658
0.00115229
0.0011475
0.00114225
0.00113663
0.00113068
0.00112448
0.00111808
0.00111152
0.00110487
0.00109814
0.00109139
0.00108464
0.00107791
0.00107124
0.00106462
0.00105809
0.00105166
0.00104532
0.0010391
0.001033
0.00102702
0.00102117
0.00101545
0.00100985
0.00100439
0.000999065
0.00116831
0.00115866
0.00114501
0.00112846
0.00110973
0.00108952
0.00106849
0.00104715
0.00102589
0.00100498
0.0009846
0.000964875
0.000945876
0.000927638
0.000910175
0.000893482
0.000877543
0.000862334
0.000847829
0.000833995
0.000820801
0.000808215
0.000796205
0.000784741
0.000773793
0.000763333
0.000753333
0.00074377
0.000734618
0.000725855
0.000717461
0.000709414
0.000701695
0.00107567
0.000936194
0.000835601
0.000756861
0.000692045
0.000638279
0.000593356
0.000555448
0.000523117
0.000495257
0.000471022
0.000449758
0.000430959
0.000414228
0.000399246
0.00038576
0.000373564
0.000362488
0.00035239
0.000343152
0.000334676
0.000326876
0.00031968
0.000313026
0.000306859
0.000301131
0.000295802
0.000290835
0.000286197
0.000281861
0.0002778
0.000273992
0.000270415
0.000142979
0.000146644
0.000150174
0.000153551
0.000156773
0.000159846
0.000162775
0.000165566
0.000168224
0.000170754
0.00017316
0.000175448
0.000177623
0.000179689
0.000181651
0.000183513
0.00018528
0.000186957
0.000188547
0.000190055
0.000191484
0.000192838
0.000194122
0.000195338
0.00019649
0.000197581
0.000198614
0.000199592
0.000200518
0.000201395
0.000202224
0.00020301
0.000203753
9.08412e-05
0.000110898
0.000137405
0.000171083
0.000210813
0.000254088
0.00029808
0.000340546
0.000380378
0.00041761
0.000453016
0.000487607
0.000522181
0.000557112
0.000592394
0.000627858
0.000663425
0.000699236
0.000735645
0.000773118
0.000812113
0.000852988
0.000895976
0.000941187
0.000988649
0.00103832
0.00109012
0.0011439
0.00119946
0.00125653
0.00131479
0.00137383
0.00143318
0.00149233
0.00155068
0.00160757
0.00166225
0.00171388
0.0017615
0.00180407
0.00184042
0.00186925
0.00188919
0.00189878
0.00189649
0.00188081
0.00185029
0.00180367
0.00174
0.0016589
0.00156092
0.00144805
0.00132464
0.00119866
0.00108313
0.000996703
0.000960268
0.000986042
0.00106315
0.00115984
0.00124809
0.00131843
0.00137338
0.00141785
0.00145549
0.00148836
0.00151759
0.00154382
0.0015675
0.00158902
0.00160879
0.00162717
0.00164457
0.00166136
0.00167789
0.00169449
0.00171139
0.00172875
0.00174663
0.00176497
0.00178361
0.00180234
0.00182087
0.00183891
0.00185616
0.00187237
0.00188732
0.00190087
0.00191293
0.00192348
0.00193257
0.00194024
0.0019466
0.00195175
0.00195582
0.00195896
0.00196128
0.00196312
0.00196402
0.00196571
7.64323e-05
7.86429e-05
8.22302e-05
8.80977e-05
9.73264e-05
0.000111021
0.000130124
0.000155151
0.000185987
0.000221807
0.000261157
0.000302219
0.000343205
0.000382767
0.000420245
0.000455675
0.000489585
0.000522706
0.000555715
0.000589096
0.000623127
0.000657953
0.000693679
0.000730437
0.000768395
0.000807737
0.000848624
0.000891149
0.00093532
0.000981047
0.00102814
0.00107634
0.00112527
0.00117451
0.00122355
0.00127178
0.0013185
0.00136293
0.00140415
0.00144115
0.00147282
0.00149793
0.00151518
0.00152319
0.00152061
0.00150611
0.00147855
0.0014371
0.00138146
0.00131228
0.00123157
0.00114356
0.00105558
0.000978961
0.000928802
0.000920322
0.000960111
0.00103717
0.00112721
0.00120979
0.00127749
0.00133173
0.00137627
0.00141427
0.00144767
0.00147754
0.00150447
0.00152885
0.00155096
0.00157113
0.00158966
0.00160689
0.00162314
0.00163877
0.00165411
0.00166945
0.00168507
0.00170115
0.00171781
0.00173505
0.00175279
0.00177086
0.00178902
0.00180699
0.00182448
0.00184121
0.00185693
0.00187146
0.00188468
0.00189651
0.00190696
0.00191606
0.00192385
0.00193043
0.00193589
0.00194037
0.00194394
0.00194694
0.00194887
0.00195182
0.000126897
0.000124722
0.000122479
0.000120025
0.000117392
0.000115066
0.000113353
0.000112801
0.000114225
0.000118617
0.00012695
0.000139977
0.000158083
0.000181203
0.000208788
0.000239868
0.00027322
0.000307598
0.000341958
0.000375616
0.000408288
0.000440042
0.00047118
0.000502111
0.000533251
0.000564952
0.000597484
0.000631028
0.000665685
0.000701489
0.00073841
0.000776349
0.000815132
0.000854499
0.000894093
0.000933454
0.000972011
0.00100908
0.00104386
0.00107546
0.00110286
0.00112499
0.00114072
0.00114892
0.00114852
0.00113864
0.00111872
0.00108877
0.00104968
0.00100367
0.000954859
0.000909789
0.000877614
0.000868932
0.000892124
0.000947543
0.00102449
0.00110657
0.00118125
0.0012439
0.00129541
0.00133855
0.00137586
0.00140901
0.00143896
0.00146621
0.00149106
0.0015137
0.00153436
0.00155325
0.00157064
0.00158679
0.001602
0.00161656
0.00163079
0.00164496
0.00165934
0.00167415
0.00168954
0.00170558
0.00172225
0.00173945
0.00175698
0.00177459
0.00179202
0.00180897
0.00182519
0.00184046
0.00185462
0.00186755
0.00187923
0.00188962
0.00189877
0.00190672
0.00191353
0.00191932
0.00192415
0.00192832
0.00193129
0.00193554
0.000296445
0.00029026
0.000284011
0.000277607
0.000270925
0.000263931
0.000256595
0.000248792
0.00024034
0.000231037
0.000220821
0.000209999
0.000199697
0.000191388
0.000186073
0.000184453
0.00018692
0.00019356
0.000204187
0.000218397
0.000235641
0.000255304
0.000276782
0.000299549
0.000323208
0.000347503
0.000372319
0.000397649
0.00042356
0.00045015
0.000477516
0.000505718
0.000534759
0.000564562
0.000594962
0.000625688
0.000656364
0.000686505
0.000715524
0.000742741
0.000767406
0.000788733
0.00080595
0.000818371
0.000825501
0.00082718
0.000823779
0.000816454
0.000807429
0.000800257
0.000799851
0.000811951
0.000841569
0.000890487
0.000955225
0.00102777
0.00109924
0.0011636
0.00121881
0.0012656
0.00130584
0.00134133
0.00137335
0.00140267
0.00142969
0.0014546
0.00147752
0.00149856
0.00151784
0.00153554
0.00155185
0.00156701
0.00158125
0.00159484
0.00160804
0.00162113
0.00163435
0.00164794
0.00166207
0.00167686
0.00169235
0.00170849
0.00172515
0.00174214
0.00175921
0.00177608
0.0017925
0.00180823
0.00182308
0.00183689
0.0018496
0.00186115
0.00187152
0.00188074
0.00188884
0.0018959
0.00190196
0.00190729
0.00191129
0.00191688
0.000498476
0.000490253
0.000482252
0.000474405
0.000466631
0.000458851
0.000450989
0.000442966
0.000434677
0.000425946
0.000416478
0.000405686
0.000393487
0.000380072
0.000365747
0.000350999
0.000336462
0.000322826
0.000310747
0.000300769
0.000293281
0.000288508
0.00028652
0.000287267
0.000290608
0.000296347
0.000304268
0.000314157
0.000325822
0.000339106
0.000353888
0.000370079
0.00038761
0.000406418
0.000426425
0.000447523
0.000469557
0.000492317
0.00051554
0.000538914
0.000562105
0.000584794
0.000606733
0.000627823
0.000648206
0.00066838
0.000689301
0.000712442
0.000739735
0.000773283
0.000814796
0.000864809
0.000922055
0.000983469
0.00104506
0.0011032
0.00115569
0.00120193
0.00124253
0.0012786
0.00131125
0.00134131
0.00136931
0.00139551
0.00141999
0.00144281
0.00146396
0.00148349
0.00150149
0.00151806
0.00153337
0.0015476
0.00156095
0.00157365
0.00158592
0.00159802
0.00161017
0.0016226
0.0016355
0.00164904
0.00166329
0.00167826
0.00169387
0.00171
0.00172644
0.00174294
0.00175925
0.00177514
0.00179039
0.00180483
0.00181835
0.00183085
0.00184229
0.00185265
0.00186194
0.00187019
0.00187742
0.00188388
0.0018889
0.00189585
0.000686834
0.000677715
0.000668878
0.000660295
0.000651917
0.000643682
0.000635537
0.000627434
0.000619339
0.000611209
0.000602971
0.000594543
0.000585806
0.000576654
0.000567014
0.000556863
0.000546244
0.000535272
0.000524122
0.000513028
0.000502257
0.000492101
0.000482844
0.00047475
0.00046804
0.000462887
0.000459411
0.000457686
0.000457741
0.000459576
0.000463173
0.0004685
0.000475527
0.000484226
0.000494578
0.000506572
0.000520206
0.00053549
0.00055244
0.000571083
0.000591463
0.000613646
0.00063774
0.00066391
0.000692393
0.000723496
0.000757568
0.000794921
0.000835707
0.000879755
0.000926436
0.000974637
0.00102289
0.00106967
0.00111374
0.00115439
0.00119149
0.00122537
0.0012566
0.00128572
0.00131319
0.00133928
0.0013641
0.00138768
0.00140996
0.00143089
0.00145043
0.00146858
0.00148537
0.0015009
0.00151527
0.00152863
0.00154116
0.00155304
0.00156447
0.00157566
0.00158682
0.00159818
0.00160994
0.00162225
0.00163524
0.00164897
0.00166342
0.0016785
0.00169407
0.00170992
0.00172584
0.00174158
0.00175694
0.00177172
0.00178578
0.00179901
0.00181132
0.00182265
0.00183298
0.00184231
0.00185064
0.00185817
0.00186418
0.00187248
0.000843893
0.000835004
0.000826316
0.000817822
0.000809503
0.000801334
0.00079329
0.000785348
0.000777498
0.000769743
0.000762087
0.000754541
0.000747111
0.000739795
0.000732585
0.000725473
0.000718456
0.000711539
0.000704742
0.000698104
0.000691682
0.000685556
0.000679828
0.000674615
0.000670042
0.000666235
0.000663315
0.00066139
0.000660554
0.000660886
0.000662448
0.000665292
0.00066946
0.000674985
0.000681902
0.000690248
0.000700066
0.000711414
0.000724361
0.000738995
0.000755414
0.000773725
0.000794034
0.000816432
0.000840979
0.000867679
0.000896457
0.000927126
0.000959368
0.000992729
0.00102664
0.00106047
0.00109361
0.0011256
0.00115614
0.00118515
0.00121273
0.00123908
0.00126443
0.00128893
0.0013127
0.00133573
0.00135797
0.00137933
0.00139968
0.00141893
0.00143701
0.00145388
0.00146956
0.0014841
0.0014976
0.00151016
0.00152192
0.00153305
0.0015437
0.00155407
0.00156435
0.00157473
0.00158541
0.00159657
0.00160833
0.0016208
0.00163401
0.00164792
0.00166243
0.00167741
0.00169265
0.00170796
0.00172312
0.00173795
0.00175228
0.00176596
0.0017789
0.00179099
0.00180219
0.00181246
0.00182176
0.00183029
0.0018372
0.00184682
0.000963156
0.000955436
0.000947798
0.00094025
0.000932792
0.00092542
0.000918129
0.000910915
0.000903782
0.000896743
0.000889815
0.000883026
0.000876411
0.000870006
0.000863844
0.000857958
0.000852377
0.000847124
0.000842224
0.000837695
0.000833559
0.000829841
0.000826572
0.000823791
0.000821541
0.000819873
0.000818841
0.000818497
0.000818895
0.000820084
0.000822112
0.000825022
0.000828853
0.000833644
0.000839429
0.000846243
0.000854122
0.000863104
0.000873233
0.000884553
0.000897113
0.000910958
0.000926124
0.000942629
0.000960465
0.000979583
0.000999889
0.00102124
0.00104342
0.00106621
0.00108935
0.00111258
0.0011357
0.00115856
0.00118108
0.00120328
0.00122518
0.00124683
0.00126827
0.00128949
0.00131044
0.00133103
0.00135112
0.00137056
0.00138922
0.00140698
0.00142374
0.00143945
0.00145411
0.00146775
0.00148043
0.00149223
0.00150329
0.00151372
0.00152366
0.00153329
0.00154276
0.00155226
0.00156195
0.00157203
0.00158263
0.00159387
0.00160581
0.00161848
0.00163182
0.00164574
0.00166008
0.00167469
0.00168937
0.00170394
0.00171823
0.00173209
0.00174538
0.001758
0.00176985
0.00178088
0.001791
0.00180039
0.00180813
0.00181898
0.00104598
0.00103997
0.00103395
0.00102791
0.00102188
0.00101586
0.00100984
0.00100385
0.000997882
0.000991962
0.000986108
0.000980347
0.000974713
0.000969241
0.000963973
0.000958947
0.000954203
0.000949777
0.000945702
0.000942007
0.000938717
0.000935855
0.00093344
0.000931493
0.000930034
0.000929082
0.00092866
0.000928788
0.000929487
0.000930779
0.000932685
0.000935226
0.000938423
0.000942296
0.000946867
0.000952156
0.000958184
0.000964975
0.00097255
0.000980933
0.000990147
0.00100021
0.00101113
0.00102292
0.00103556
0.00104903
0.00106328
0.00107824
0.00109384
0.00110998
0.00112658
0.00114354
0.00116081
0.00117834
0.00119612
0.00121413
0.00123238
0.00125083
0.00126946
0.00128818
0.00130689
0.00132545
0.0013437
0.0013615
0.00137868
0.00139511
0.00141068
0.00142535
0.00143907
0.00145187
0.00146379
0.0014749
0.0014853
0.00149508
0.00150438
0.00151332
0.00152206
0.00153076
0.00153957
0.00154865
0.00155817
0.00156824
0.00157895
0.00159036
0.00160245
0.00161519
0.00162846
0.00164215
0.00165609
0.00167012
0.00168408
0.00169781
0.00171118
0.00172405
0.00173631
0.00174787
0.00175863
0.00176873
0.00177715
0.00178913
0.00109857
0.00109434
0.00109003
0.00108566
0.00108124
0.00107676
0.00107224
0.00106769
0.00106311
0.00105854
0.00105397
0.00104944
0.00104498
0.0010406
0.00103635
0.00103226
0.00102836
0.00102468
0.00102127
0.00101815
0.00101534
0.00101288
0.00101078
0.00100906
0.00100775
0.00100684
0.00100637
0.00100633
0.00100674
0.0010076
0.00100894
0.00101075
0.00101304
0.00101583
0.00101913
0.00102294
0.00102728
0.00103216
0.0010376
0.00104361
0.0010502
0.0010574
0.00106521
0.00107365
0.00108271
0.00109239
0.00110269
0.0011136
0.00112509
0.00113714
0.00114974
0.00116288
0.00117654
0.00119071
0.0012054
0.00122058
0.00123624
0.00125232
0.00126877
0.00128549
0.00130235
0.0013192
0.00133589
0.00135225
0.00136812
0.00138337
0.00139789
0.00141161
0.00142448
0.00143651
0.00144773
0.0014582
0.00146797
0.00147716
0.00148586
0.00149418
0.00150226
0.00151023
0.00151824
0.00152643
0.00153495
0.00154393
0.00155348
0.00156365
0.00157449
0.00158598
0.00159807
0.00161067
0.00162366
0.0016369
0.00165026
0.00166359
0.00167674
0.00168958
0.00170197
0.00171382
0.00172498
0.00173559
0.00174455
0.00175747
0.001129
0.00112628
0.00112347
0.00112058
0.0011176
0.00111455
0.00111144
0.00110826
0.00110504
0.00110178
0.00109849
0.0010952
0.00109192
0.00108868
0.00108549
0.00108238
0.00107939
0.00107653
0.00107383
0.00107131
0.00106902
0.00106695
0.00106514
0.00106361
0.00106237
0.00106143
0.00106081
0.00106052
0.00106056
0.00106095
0.00106169
0.00106279
0.00106425
0.00106608
0.00106829
0.00107088
0.00107387
0.00107725
0.00108106
0.0010853
0.00108998
0.00109512
0.00110074
0.00110685
0.00111348
0.00112063
0.00112832
0.00113657
0.00114539
0.00115479
0.00116478
0.00117539
0.00118661
0.00119847
0.00121096
0.00122407
0.00123776
0.001252
0.0012667
0.00128177
0.00129707
0.00131247
0.0013278
0.0013429
0.00135763
0.00137183
0.0013854
0.00139826
0.00141036
0.00142169
0.00143227
0.00144213
0.00145134
0.00145997
0.00146812
0.00147587
0.00148335
0.00149067
0.00149795
0.00150534
0.00151297
0.00152095
0.00152941
0.00153842
0.00154803
0.00155827
0.00156912
0.00158053
0.00159241
0.00160468
0.0016172
0.00162986
0.00164251
0.00165503
0.00166728
0.00167914
0.00169046
0.00170136
0.00171065
0.0017243
0.00114501
0.00114337
0.00114166
0.00113987
0.00113802
0.00113609
0.00113409
0.00113203
0.00112992
0.00112776
0.00112556
0.00112333
0.00112109
0.00111885
0.00111663
0.00111444
0.0011123
0.00111023
0.00110825
0.00110638
0.00110463
0.00110303
0.00110159
0.00110033
0.00109926
0.0010984
0.00109776
0.00109735
0.00109717
0.00109725
0.00109758
0.00109817
0.00109903
0.00110016
0.00110158
0.00110328
0.00110529
0.00110761
0.00111026
0.00111324
0.00111659
0.0011203
0.00112441
0.00112894
0.00113392
0.00113936
0.00114529
0.00115175
0.00115876
0.00116635
0.00117455
0.00118339
0.00119288
0.00120305
0.0012139
0.00122541
0.00123757
0.00125032
0.00126359
0.00127727
0.00129126
0.00130541
0.00131956
0.00133357
0.00134727
0.00136054
0.00137325
0.00138534
0.00139673
0.00140742
0.00141741
0.00142672
0.0014354
0.00144352
0.00145115
0.00145839
0.00146531
0.00147204
0.00147868
0.00148535
0.00149217
0.00149926
0.00150673
0.00151466
0.00152311
0.00153214
0.00154175
0.00155193
0.00156262
0.00157376
0.00158527
0.00159703
0.00160895
0.00162088
0.00163271
0.00164431
0.00165552
0.00166646
0.00167586
0.00168996
0.00115263
0.00115167
0.00115066
0.00114959
0.00114848
0.00114731
0.00114608
0.00114481
0.00114349
0.00114214
0.00114074
0.00113932
0.00113788
0.00113643
0.00113497
0.00113352
0.00113209
0.0011307
0.00112935
0.00112805
0.00112683
0.00112568
0.00112464
0.0011237
0.00112289
0.0011222
0.00112166
0.00112127
0.00112104
0.00112099
0.00112111
0.00112142
0.00112192
0.00112263
0.00112354
0.00112468
0.00112605
0.00112767
0.00112954
0.00113169
0.00113414
0.0011369
0.00114
0.00114347
0.00114733
0.00115162
0.00115636
0.00116159
0.00116736
0.00117369
0.00118062
0.00118818
0.0011964
0.0012053
0.00121489
0.00122516
0.00123609
0.00124763
0.00125971
0.00127224
0.0012851
0.00129817
0.00131129
0.00132432
0.00133711
0.00134954
0.00136148
0.00137286
0.00138361
0.00139371
0.00140315
0.00141194
0.00142014
0.00142779
0.00143495
0.00144171
0.00144813
0.00145433
0.00146038
0.00146641
0.00147252
0.00147881
0.00148539
0.00149233
0.00149973
0.00150762
0.00151604
0.00152499
0.00153446
0.00154441
0.00155478
0.00156549