/*--------------------------------*- C++ -*----------------------------------*\
| =========                 |                                                 |
| \\      /  F ield         | OpenFOAM: The Open Source CFD Toolbox           |
|  \\    /   O peration     | Version:  2.1.1                                 |
|   \\  /    A nd           | Web:      www.OpenFOAM.org                      |
|    \\/     M anipulation  |                                                 |
\*---------------------------------------------------------------------------*/
FoamFile
{
    version     2.0;
    format      ascii;
    class       volScalarField;
    location    "0.1";
    object      p;
}
// * * * * * * * * * * * * * * * * * * * * * * * * * * * * * * * * * * * * * //

dimensions      [0 2 -2 0 0 0 0];

internalField   nonuniform List<scalar> 
6820
(
-11.1508
-12.9972
-13.5725
-13.7006
-13.8082
-13.888
-13.9431
-13.9904
-14.0338
-14.0738
-14.1113
-14.1469
-14.181
-14.2136
-14.245
-14.2752
-14.3044
-14.3328
-14.3603
-14.3872
-14.4136
-14.4394
-14.4649
-14.4899
-14.5146
-14.5388
-14.5623
-14.5849
-14.6056
-14.6233
-14.6344
-14.6314
-14.6063
-15.1033
-14.5688
-14.1465
-13.9569
-13.9328
-13.9446
-13.9655
-13.9943
-14.0274
-14.0618
-14.0964
-14.1308
-14.1646
-14.1975
-14.2294
-14.2604
-14.2904
-14.3196
-14.348
-14.3756
-14.4027
-14.4293
-14.4553
-14.481
-14.5064
-14.5313
-14.5559
-14.5801
-14.6036
-14.6283
-14.6523
-14.7003
-14.7616
-13.4608
-13.1571
-13.4439
-13.6893
-13.7949
-13.8708
-13.9305
-13.9807
-14.0256
-14.0667
-14.105
-14.141
-14.1752
-14.2078
-14.2391
-14.2692
-14.2983
-14.3265
-14.3539
-14.3807
-14.407
-14.4328
-14.4583
-14.4835
-14.5084
-14.5332
-14.5578
-14.5824
-14.6071
-14.6331
-14.6608
-14.6968
-14.7355
-13.9677
-14.0022
-13.9997
-13.9408
-13.9336
-13.9546
-13.9817
-14.0113
-14.043
-14.0754
-14.1077
-14.1396
-14.171
-14.2018
-14.2318
-14.2611
-14.2898
-14.3177
-14.3452
-14.372
-14.3985
-14.4246
-14.4503
-14.4759
-14.5013
-14.5266
-14.552
-14.5778
-14.6041
-14.6325
-14.6633
-14.704
-14.7505
-13.8122
-13.7122
-13.7567
-13.8231
-13.8765
-13.9237
-13.9651
-14.0032
-14.04
-14.0754
-14.1095
-14.1424
-14.1743
-14.2052
-14.2352
-14.2643
-14.2927
-14.3203
-14.3474
-14.3739
-14.4
-14.4257
-14.4512
-14.4765
-14.5018
-14.5271
-14.5526
-14.5787
-14.6057
-14.6348
-14.6664
-14.7042
-14.7458
-13.8673
-13.8507
-13.8761
-13.8995
-13.9223
-13.9522
-13.9844
-14.0168
-14.0495
-14.0819
-14.1137
-14.1449
-14.1754
-14.2051
-14.2342
-14.2625
-14.2903
-14.3175
-14.3441
-14.3704
-14.3963
-14.4219
-14.4473
-14.4726
-14.4979
-14.5234
-14.5492
-14.5757
-14.6032
-14.6325
-14.6642
-14.7001
-14.739
-13.8653
-13.8443
-13.8603
-13.8895
-13.9201
-13.9535
-13.9871
-14.0199
-14.0523
-14.0843
-14.1156
-14.1463
-14.1763
-14.2056
-14.2342
-14.2622
-14.2896
-14.3165
-14.3428
-14.3688
-14.3945
-14.4199
-14.4451
-14.4703
-14.4955
-14.521
-14.5468
-14.5734
-14.6009
-14.63
-14.6609
-14.6946
-14.73
-13.8793
-13.8717
-13.8872
-13.9121
-13.9378
-13.9665
-13.9967
-14.0272
-14.0578
-14.0883
-14.1185
-14.1481
-14.1772
-14.2058
-14.2337
-14.2611
-14.288
-14.3144
-14.3404
-14.366
-14.3914
-14.4166
-14.4416
-14.4666
-14.4917
-14.5171
-14.5428
-14.5692
-14.5965
-14.625
-14.6549
-14.6866
-14.7193
-13.8921
-13.8883
-13.9006
-13.9225
-13.9469
-13.9743
-14.0032
-14.0326
-14.0621
-14.0916
-14.1208
-14.1496
-14.1779
-14.2058
-14.2331
-14.26
-14.2864
-14.3124
-14.338
-14.3633
-14.3883
-14.4132
-14.438
-14.4628
-14.4876
-14.5128
-14.5383
-14.5643
-14.5911
-14.6189
-14.6476
-14.6774
-14.7078
-13.9055
-13.9049
-13.9164
-13.9362
-13.9588
-13.984
-14.0111
-14.0388
-14.0669
-14.0951
-14.1232
-14.1511
-14.1786
-14.2057
-14.2324
-14.2587
-14.2845
-14.31
-14.3352
-14.3601
-14.3848
-14.4093
-14.4338
-14.4583
-14.4828
-14.5076
-14.5327
-14.5583
-14.5845
-14.6114
-14.6389
-14.6671
-14.6954
-13.9187
-13.9198
-13.9304
-13.9482
-13.9691
-13.9927
-14.0181
-14.0445
-14.0714
-14.0985
-14.1256
-14.1525
-14.1792
-14.2056
-14.2316
-14.2572
-14.2826
-14.3076
-14.3323
-14.3567
-14.381
-14.4052
-14.4292
-14.4533
-14.4775
-14.5018
-14.5265
-14.5515
-14.5769
-14.6028
-14.6292
-14.6558
-14.6825
-13.9318
-13.9338
-13.9438
-13.96
-13.9794
-14.0014
-14.0253
-14.0503
-14.0759
-14.1018
-14.1279
-14.1539
-14.1797
-14.2053
-14.2307
-14.2557
-14.2804
-14.3049
-14.3291
-14.3531
-14.3769
-14.4006
-14.4242
-14.4479
-14.4716
-14.4954
-14.5195
-14.5438
-14.5684
-14.5933
-14.6185
-14.6438
-14.669
-13.9443
-13.9468
-13.9562
-13.9711
-13.9891
-14.0097
-14.0321
-14.0558
-14.0802
-14.1051
-14.1301
-14.1552
-14.1802
-14.205
-14.2296
-14.254
-14.2781
-14.302
-14.3257
-14.3492
-14.3725
-14.3957
-14.4188
-14.4419
-14.4651
-14.4884
-14.5117
-14.5353
-14.5591
-14.583
-14.607
-14.6311
-14.655
-13.9563
-13.9589
-13.9678
-13.9815
-13.9983
-14.0176
-14.0387
-14.0612
-14.0844
-14.1082
-14.1322
-14.1564
-14.1805
-14.2046
-14.2285
-14.2522
-14.2757
-14.299
-14.3221
-14.345
-14.3678
-14.3904
-14.413
-14.4355
-14.4581
-14.4807
-14.5034
-14.5261
-14.549
-14.5719
-14.5949
-14.6178
-14.6404
-13.9676
-13.9703
-13.9787
-13.9914
-14.007
-14.0251
-14.045
-14.0662
-14.0883
-14.1111
-14.1341
-14.1574
-14.1807
-14.204
-14.2272
-14.2502
-14.273
-14.2957
-14.3182
-14.3405
-14.3627
-14.3848
-14.4067
-14.4287
-14.4506
-14.4725
-14.4944
-14.5163
-14.5383
-14.5602
-14.5821
-14.6038
-14.6253
-13.9782
-13.9808
-13.9887
-14.0006
-14.0152
-14.0321
-14.0509
-14.071
-14.0921
-14.1138
-14.1359
-14.1583
-14.1807
-14.2032
-14.2256
-14.248
-14.2701
-14.2921
-14.314
-14.3357
-14.3573
-14.3787
-14.4001
-14.4213
-14.4425
-14.4637
-14.4848
-14.5058
-14.5269
-14.5478
-14.5686
-14.5892
-14.6096
-13.9881
-13.9906
-13.998
-14.0091
-14.0228
-14.0387
-14.0564
-14.0754
-14.0955
-14.1162
-14.1374
-14.1589
-14.1805
-14.2022
-14.2239
-14.2455
-14.267
-14.2883
-14.3096
-14.3306
-14.3515
-14.3723
-14.393
-14.4135
-14.434
-14.4543
-14.4746
-14.4948
-14.5148
-14.5348
-14.5545
-14.5741
-14.5934
-13.9972
-13.9996
-14.0066
-14.0169
-14.0297
-14.0447
-14.0614
-14.0795
-14.0986
-14.1183
-14.1386
-14.1593
-14.1801
-14.201
-14.222
-14.2428
-14.2636
-14.2843
-14.3048
-14.3252
-14.3454
-14.3655
-14.3854
-14.4053
-14.4249
-14.4445
-14.4639
-14.4831
-14.5022
-14.5212
-14.5399
-14.5583
-14.5765
-14.0055
-14.0078
-14.0144
-14.0241
-14.0361
-14.0502
-14.066
-14.0831
-14.1013
-14.1202
-14.1396
-14.1594
-14.1794
-14.1996
-14.2197
-14.2399
-14.26
-14.2799
-14.2997
-14.3194
-14.3389
-14.3583
-14.3775
-14.3965
-14.4154
-14.4341
-14.4526
-14.4709
-14.4891
-14.507
-14.5246
-14.542
-14.5591
-14.013
-14.0152
-14.0214
-14.0305
-14.0418
-14.0551
-14.07
-14.0863
-14.1036
-14.1216
-14.1402
-14.1592
-14.1784
-14.1978
-14.2172
-14.2366
-14.256
-14.2752
-14.2944
-14.3133
-14.3321
-14.3507
-14.3692
-14.3874
-14.4054
-14.4233
-14.4409
-14.4582
-14.4754
-14.4923
-14.5089
-14.5252
-14.5412
-14.0197
-14.0217
-14.0276
-14.0361
-14.0468
-14.0593
-14.0735
-14.089
-14.1054
-14.1226
-14.1404
-14.1586
-14.1771
-14.1957
-14.2144
-14.2331
-14.2518
-14.2703
-14.2887
-14.3069
-14.3249
-14.3428
-14.3604
-14.3778
-14.395
-14.412
-14.4287
-14.4451
-14.4612
-14.4771
-14.4926
-14.5078
-14.5227
-14.0255
-14.0274
-14.0329
-14.041
-14.0511
-14.063
-14.0764
-14.0911
-14.1068
-14.1232
-14.1403
-14.1577
-14.1754
-14.1933
-14.2113
-14.2293
-14.2472
-14.265
-14.2826
-14.3001
-14.3174
-14.3345
-14.3513
-14.3679
-14.3842
-14.4002
-14.416
-14.4315
-14.4466
-14.4614
-14.4759
-14.49
-14.5038
-14.0305
-14.0323
-14.0375
-14.0451
-14.0546
-14.0659
-14.0787
-14.0927
-14.1076
-14.1234
-14.1397
-14.1564
-14.1734
-14.1906
-14.2079
-14.2251
-14.2423
-14.2594
-14.2763
-14.293
-14.3095
-14.3258
-14.3418
-14.3576
-14.373
-14.3882
-14.403
-14.4175
-14.4316
-14.4454
-14.4588
-14.4718
-14.4845
-14.0346
-14.0363
-14.0412
-14.0484
-14.0574
-14.0681
-14.0803
-14.0936
-14.1079
-14.1229
-14.1386
-14.1546
-14.1709
-14.1874
-14.204
-14.2206
-14.237
-14.2534
-14.2696
-14.2856
-14.3013
-14.3168
-14.332
-14.3469
-14.3615
-14.3757
-14.3896
-14.4031
-14.4162
-14.429
-14.4413
-14.4533
-14.4648
-14.0377
-14.0393
-14.044
-14.0508
-14.0594
-14.0696
-14.0812
-14.094
-14.1077
-14.1221
-14.1371
-14.1525
-14.1682
-14.1841
-14.1999
-14.2158
-14.2316
-14.2473
-14.2627
-14.2779
-14.2929
-14.3076
-14.322
-14.336
-14.3497
-14.363
-14.376
-14.3885
-14.4006
-14.4124
-14.4236
-14.4345
-14.4449
-14.0399
-14.0414
-14.0458
-14.0523
-14.0604
-14.0701
-14.0812
-14.0934
-14.1066
-14.1204
-14.1348
-14.1496
-14.1647
-14.1799
-14.1952
-14.2104
-14.2255
-14.2405
-14.2553
-14.2698
-14.284
-14.2979
-14.3115
-14.3247
-14.3375
-14.35
-14.362
-14.3736
-14.3847
-14.3954
-14.4057
-14.4155
-14.4248
-14.0412
-14.0426
-14.0469
-14.0531
-14.0609
-14.0703
-14.081
-14.0928
-14.1054
-14.1188
-14.1327
-14.1469
-14.1614
-14.1761
-14.1907
-14.2053
-14.2197
-14.234
-14.2481
-14.2618
-14.2753
-14.2884
-14.3012
-14.3135
-14.3255
-14.337
-14.3481
-14.3587
-14.3689
-14.3786
-14.3878
-14.3965
-14.4047
-14.0414
-14.0427
-14.0465
-14.0522
-14.0595
-14.0684
-14.0787
-14.09
-14.1022
-14.1151
-14.1286
-14.1424
-14.1564
-14.1705
-14.1847
-14.1987
-14.2126
-14.2263
-14.2398
-14.2529
-14.2657
-14.2781
-14.2901
-14.3017
-14.3128
-14.3235
-14.3337
-14.3435
-14.3527
-14.3614
-14.3696
-14.3773
-14.3845
-14.0407
-14.0422
-14.0461
-14.052
-14.0593
-14.0681
-14.0782
-14.0892
-14.1011
-14.1136
-14.1266
-14.1399
-14.1534
-14.1669
-14.1804
-14.1938
-14.207
-14.22
-14.2327
-14.2451
-14.2571
-14.2688
-14.2799
-14.2907
-14.301
-14.3108
-14.3201
-14.3289
-14.3371
-14.3449
-14.3521
-14.3587
-14.3648
-14.0384
-14.039
-14.0418
-14.0465
-14.0531
-14.0614
-14.0711
-14.082
-14.0937
-14.1061
-14.119
-14.1322
-14.1455
-14.1589
-14.1721
-14.1853
-14.1982
-14.2108
-14.2231
-14.235
-14.2465
-14.2575
-14.2681
-14.2782
-14.2878
-14.2969
-14.3054
-14.3134
-14.3209
-14.3277
-14.3341
-14.3398
-14.345
-14.0368
-14.0393
-14.0436
-14.0493
-14.0564
-14.0647
-14.0742
-14.0846
-14.0958
-14.1076
-14.1197
-14.1321
-14.1447
-14.1572
-14.1697
-14.182
-14.1941
-14.2059
-14.2173
-14.2284
-14.2391
-14.2493
-14.259
-14.2682
-14.2769
-14.2851
-14.2927
-14.2997
-14.3062
-14.3121
-14.3175
-14.3222
-14.3264
-14.0288
-14.0267
-14.0268
-14.0302
-14.0365
-14.045
-14.0552
-14.0665
-14.0787
-14.0915
-14.1046
-14.1178
-14.1311
-14.1442
-14.1571
-14.1697
-14.182
-14.1938
-14.2053
-14.2162
-14.2267
-14.2366
-14.246
-14.2549
-14.2631
-14.2708
-14.2778
-14.2843
-14.2901
-14.2954
-14.3
-14.304
-14.3074
-14.0351
-14.0415
-14.047
-14.0518
-14.0573
-14.0642
-14.0725
-14.0818
-14.0919
-14.1027
-14.1138
-14.1253
-14.1368
-14.1483
-14.1597
-14.1709
-14.1819
-14.1925
-14.2027
-14.2125
-14.2219
-14.2307
-14.2391
-14.2469
-14.2541
-14.2608
-14.2669
-14.2723
-14.2772
-14.2814
-14.2851
-14.2881
-14.2905
-14.0034
-13.99
-13.985
-13.9897
-13.9992
-14.0111
-14.0246
-14.0389
-14.0536
-14.0685
-14.0833
-14.0978
-14.112
-14.1257
-14.139
-14.1518
-14.164
-14.1756
-14.1867
-14.1971
-14.2069
-14.2161
-14.2246
-14.2325
-14.2397
-14.2462
-14.2521
-14.2573
-14.2618
-14.2657
-14.2689
-14.2714
-14.2732
-14.0561
-14.0762
-14.08
-14.075
-14.0724
-14.0743
-14.0789
-14.0853
-14.093
-14.1017
-14.1112
-14.121
-14.1311
-14.1413
-14.1515
-14.1614
-14.1712
-14.1806
-14.1896
-14.1982
-14.2063
-14.2139
-14.221
-14.2275
-14.2334
-14.2387
-14.2434
-14.2475
-14.251
-14.2538
-14.256
-14.2575
-14.2584
-13.9332
-13.8837
-13.8719
-13.898
-13.9251
-13.9486
-13.9717
-13.9941
-14.0152
-14.0351
-14.0538
-14.0715
-14.0881
-14.1037
-14.1184
-14.1321
-14.1451
-14.1571
-14.1683
-14.1788
-14.1884
-14.1973
-14.2053
-14.2126
-14.2192
-14.225
-14.23
-14.2343
-14.2378
-14.2406
-14.2427
-14.2441
-14.2447
-14.1807
-14.2155
-14.1842
-14.141
-14.1118
-14.1006
-14.0972
-14.0972
-14.1001
-14.1052
-14.1118
-14.1193
-14.1274
-14.1358
-14.1444
-14.1529
-14.1613
-14.1695
-14.1773
-14.1848
-14.1918
-14.1983
-14.2043
-14.2097
-14.2146
-14.2188
-14.2224
-14.2254
-14.2278
-14.2295
-14.2305
-14.231
-14.2308
-13.6884
-13.5687
-13.6309
-13.7322
-13.8057
-13.8566
-13.8995
-13.9369
-13.9691
-13.9974
-14.0224
-14.0449
-14.0651
-14.0835
-14.1003
-14.1157
-14.1297
-14.1426
-14.1543
-14.1651
-14.1748
-14.1836
-14.1915
-14.1985
-14.2047
-14.21
-14.2144
-14.2181
-14.221
-14.223
-14.2243
-14.2248
-14.2245
-14.9026
-14.5636
-14.2996
-14.182
-14.1316
-14.1057
-14.09
-14.0829
-14.0822
-14.0851
-14.0905
-14.0974
-14.1054
-14.1138
-14.1226
-14.1314
-14.14
-14.1484
-14.1564
-14.164
-14.1712
-14.1778
-14.1838
-14.1892
-14.194
-14.1981
-14.2016
-14.2044
-14.2066
-14.208
-14.2088
-14.2089
-14.2083
-12.3988
-13.1054
-13.5096
-13.6616
-13.7657
-13.8475
-13.9062
-13.9504
-13.9859
-14.0151
-14.0396
-14.0608
-14.0794
-14.096
-14.111
-14.1245
-14.1369
-14.1481
-14.1584
-14.1677
-14.1761
-14.1836
-14.1903
-14.1962
-14.2012
-14.2055
-14.209
-14.2117
-14.2136
-14.2148
-14.2152
-14.2149
-14.2138
-14.498
-14.7091
-14.8611
-14.9381
-14.9757
-15.0003
-15.0302
-15.08
-15.1577
-15.2626
-15.3915
-15.5392
-15.6992
-15.8637
-16.0259
-16.1799
-16.3205
-16.4441
-16.5478
-16.6301
-16.6902
-16.7283
-16.7449
-16.7408
-16.7169
-16.674
-16.613
-16.5346
-16.4395
-16.3282
-16.2015
-16.06
-15.9042
-15.7349
-15.5525
-15.3575
-15.1505
-14.9317
-14.7011
-14.4586
-14.2038
-13.936
-13.6539
-13.3563
-13.0413
-12.7067
-12.3501
-11.9687
-11.5596
-11.1197
-10.6463
-10.1368
-9.58921
-9.00246
-8.37677
-7.7141
-7.0188
-6.29826
-5.56353
-4.8292
-4.11145
-3.42542
-2.78398
-2.19765
-1.67418
-1.21807
-0.830421
-0.509181
-0.249816
-0.0460906
0.109134
0.223221
0.303265
0.355773
0.386502
0.400395
0.4016
0.39352
0.378896
0.35989
0.338172
0.315001
0.2913
0.267722
0.24471
0.222537
0.201372
0.181272
0.162273
0.144291
0.127368
0.111228
0.0961896
0.0813441
0.0682301
0.0534646
0.0434336
0.0252381
0.0237632
-0.00966088
-15.127
-15.2445
-15.1513
-15.0637
-15.0041
-14.9618
-14.952
-14.9758
-15.041
-15.1445
-15.279
-15.436
-15.6062
-15.78
-15.9491
-16.1066
-16.2475
-16.3686
-16.4683
-16.5463
-16.6024
-16.6373
-16.6515
-16.6458
-16.6208
-16.5773
-16.516
-16.4374
-16.3423
-16.2312
-16.105
-15.964
-15.8091
-15.6408
-15.4596
-15.266
-15.0604
-14.8432
-14.6142
-14.3733
-14.1201
-13.8538
-13.5732
-13.277
-12.9633
-12.6299
-12.2745
-11.8942
-11.4863
-11.0477
-10.5758
-10.0679
-9.52224
-8.93787
-8.31538
-7.65746
-6.96943
-6.25972
-5.53991
-4.82357
-4.1245
-3.45577
-2.82927
-2.25508
-1.74072
-1.29064
-0.906104
-0.585397
-0.324447
-0.117523
0.0420239
0.161126
0.246526
0.304461
0.340494
0.359437
0.365354
0.361608
0.350919
0.335455
0.316899
0.296536
0.275316
0.253925
0.232834
0.212347
0.192661
0.173857
0.155993
0.139004
0.122945
0.107562
0.0931788
0.0789059
0.0662758
0.0519639
0.042254
0.0245328
0.0230798
-0.0093733
-14.791
-14.7757
-14.7905
-14.8421
-14.8917
-14.9319
-14.9669
-15.0178
-15.0872
-15.1771
-15.2879
-15.4168
-15.5581
-15.7059
-15.8542
-15.9975
-16.1309
-16.2499
-16.3511
-16.4324
-16.4923
-16.5305
-16.5472
-16.543
-16.5188
-16.4756
-16.4143
-16.3357
-16.2407
-16.13
-16.0042
-15.864
-15.7099
-15.5426
-15.3626
-15.1703
-14.966
-14.7501
-14.5225
-14.283
-14.031
-13.7658
-13.4863
-13.191
-12.8781
-12.5454
-12.1906
-11.8108
-11.4034
-10.9654
-10.494
-9.98701
-9.44283
-8.86119
-8.24345
-7.59305
-6.91595
-6.22084
-5.51848
-4.82069
-4.13966
-3.48747
-2.87539
-2.31303
-1.80764
-1.36358
-0.982219
-0.662167
-0.399777
-0.189798
-0.0260549
0.0979662
0.188659
0.251992
0.293329
0.317347
0.328023
0.328668
0.321985
0.310137
0.294823
0.277346
0.258684
0.239553
0.220452
0.201716
0.183566
0.16611
0.149428
0.133473
0.118319
0.103724
0.0900248
0.0763539
0.0642277
0.0504004
0.0410154
0.0238166
0.0223489
-0.00902596
-14.8511
-14.9654
-15.0196
-15.026
-15.015
-15.0028
-15.0059
-15.0349
-15.0887
-15.1676
-15.2712
-15.3943
-15.5298
-15.6707
-15.8105
-15.9434
-16.0649
-16.1716
-16.2611
-16.3323
-16.3844
-16.4172
-16.4308
-16.4255
-16.4016
-16.3595
-16.2999
-16.2232
-16.1301
-16.0211
-15.897
-15.7583
-15.6058
-15.4398
-15.2612
-15.0702
-14.8672
-14.6525
-14.426
-14.1874
-13.9362
-13.6716
-13.3926
-13.0975
-12.7846
-12.4518
-12.0967
-11.7166
-11.3088
-10.8707
-10.3997
-9.89419
-9.35305
-8.77652
-8.16643
-7.52666
-6.86333
-6.18457
-5.49996
-4.82013
-4.15641
-3.52018
-2.92212
-2.37137
-1.87483
-1.43678
-1.05867
-0.739397
-0.475721
-0.262844
-0.095042
0.0337893
0.1297
0.198391
0.245023
0.274132
0.289604
0.294695
0.292082
0.283923
0.271926
0.257412
0.241386
0.224587
0.207546
0.190625
0.174072
0.158019
0.142566
0.127689
0.113477
0.0997071
0.0867217
0.0736822
0.0620822
0.0487684
0.0397199
0.0230827
0.0215847
-0.00862859
-14.8054
-14.8457
-14.8511
-14.8604
-14.8844
-14.9172
-14.958
-15.0105
-15.077
-15.1601
-15.2597
-15.373
-15.4948
-15.6207
-15.7461
-15.8667
-15.9785
-16.0782
-16.1632
-16.2314
-16.2816
-16.3131
-16.3254
-16.3189
-16.2939
-16.2509
-16.1906
-16.1135
-16.0204
-15.9118
-15.7883
-15.6504
-15.4988
-15.3339
-15.1562
-14.9662
-14.7641
-14.55
-14.324
-14.0857
-13.8346
-13.5699
-13.2905
-12.9949
-12.6813
-12.3477
-11.9919
-11.6113
-11.2035
-10.7661
-10.297
-9.79477
-9.25872
-8.6895
-8.08931
-7.46214
-6.81373
-6.15142
-5.48402
-4.82148
-4.17447
-3.55375
-2.96937
-2.42999
-1.9422
-1.51013
-1.13534
-0.816984
-0.552177
-0.336559
-0.164841
-0.0313167
0.0697291
0.143726
0.195634
0.229841
0.250137
0.259719
0.261234
0.256831
0.248222
0.236745
0.223426
0.209031
0.194118
0.179077
0.164179
0.149582
0.135407
0.121653
0.108422
0.0955113
0.08327
0.0708914
0.05984
0.047068
0.0383677
0.0223296
0.0207875
-0.00818777
-14.7905
-14.8457
-14.8886
-14.923
-14.9498
-14.9718
-14.9976
-15.0358
-15.0897
-15.1603
-15.2487
-15.3497
-15.4602
-15.5753
-15.6904
-15.8011
-15.9034
-15.9941
-16.0708
-16.1318
-16.1759
-16.2026
-16.2116
-16.2029
-16.1769
-16.1338
-16.0739
-15.9977
-15.9056
-15.7982
-15.6759
-15.5393
-15.3888
-15.225
-15.0483
-14.8591
-14.6576
-14.4439
-14.218
-13.9796
-13.7282
-13.4629
-13.1827
-12.8862
-12.5718
-12.2375
-11.8812
-11.5007
-11.0936
-10.6579
-10.1918
-9.69411
-9.16464
-8.60425
-8.01516
-7.40113
-6.76747
-6.1211
-5.47029
-4.82447
-4.19368
-3.58804
-3.01703
-2.48881
-2.00965
-1.58356
-1.21216
-0.894834
-0.629051
-0.410855
-0.235373
-0.0972794
0.00880772
0.0880513
0.145204
0.184508
0.20965
0.223762
0.229457
0.22887
0.223716
0.215347
0.204807
0.192885
0.180167
0.167067
0.153884
0.140796
0.127949
0.115361
0.10315
0.0911347
0.0796683
0.0679802
0.0575004
0.0452984
0.036959
0.0215558
0.0199587
-0.00770844
-14.7736
-14.8187
-14.8504
-14.8737
-14.8967
-14.924
-14.9616
-15.01
-15.07
-15.143
-15.2269
-15.3211
-15.4226
-15.5274
-15.6317
-15.7318
-15.8245
-15.9068
-15.9765
-16.0318
-16.0715
-16.0947
-16.1011
-16.0905
-16.0629
-16.0186
-15.958
-15.8814
-15.7893
-15.6821
-15.5603
-15.4244
-15.2747
-15.1118
-14.9359
-14.7474
-14.5465
-14.3333
-14.1076
-13.8692
-13.6176
-13.352
-13.0713
-12.7742
-12.4593
-12.1247
-11.7684
-11.3885
-10.9829
-10.5498
-10.0877
-9.59564
-9.07363
-8.52257
-7.94465
-7.34347
-6.72413
-6.09319
-5.45849
-4.8289
-4.2139
-3.62297
-3.06502
-2.54775
-2.07711
-1.65698
-1.28903
-0.972859
-0.706255
-0.485646
-0.306554
-0.164024
-0.0529985
0.0314216
0.0937823
0.138172
0.168172
0.186847
0.196768
0.200054
0.198418
0.193223
0.185529
0.176149
0.165691
0.154595
0.143184
0.13166
0.120189
0.108811
0.0976603
0.0865757
0.0759153
0.0649476
0.0550631
0.0434589
0.0354942
0.0207596
0.0191005
-0.00719646
-14.7581
-14.8002
-14.8357
-14.8675
-14.8994
-14.9331
-14.9683
-15.0117
-15.0664
-15.132
-15.2079
-15.2929
-15.3845
-15.4792
-15.5735
-15.6642
-15.748
-15.8224
-15.8851
-15.9343
-15.9689
-15.9879
-15.991
-15.9779
-15.9485
-15.9031
-15.8418
-15.7651
-15.6731
-15.5662
-15.445
-15.3097
-15.1607
-14.9984
-14.8232
-14.6354
-14.4349
-14.222
-13.9965
-13.7581
-13.5063
-13.2404
-12.9593
-12.662
-12.3468
-12.0123
-11.6566
-11.2779
-10.8743
-10.4443
-9.98664
-9.50053
-8.98606
-8.44425
-7.87729
-7.28868
-6.68331
-6.06741
-5.4484
-4.83465
-4.23503
-3.65845
-3.11327
-2.60674
-2.1445
-1.7303
-1.36586
-1.05096
-0.783695
-0.560841
-0.378299
-0.231473
-0.115619
-0.0261017
0.0414188
0.0908758
0.125739
0.149
0.163187
0.170397
0.172339
0.17038
0.165599
0.158826
0.150691
0.141661
0.132078
0.122171
0.112125
0.102002
0.0919509
0.0818333
0.0720106
0.0617933
0.0525278
0.0415488
0.0339738
0.0199393
0.0182153
-0.00665845
-14.7431
-14.782
-14.8166
-14.8479
-14.8786
-14.9115
-14.9489
-14.9937
-15.0476
-15.1103
-15.1814
-15.2597
-15.3432
-15.4291
-15.5143
-15.5959
-15.6713
-15.738
-15.7938
-15.8372
-15.8669
-15.8821
-15.882
-15.8665
-15.8354
-15.7888
-15.7268
-15.6496
-15.5574
-15.4508
-15.3298
-15.195
-15.0467
-14.8851
-14.7105
-14.5232
-14.3233
-14.1107
-13.8855
-13.6472
-13.3953
-13.1293
-12.8481
-12.5507
-12.2356
-11.9015
-11.5466
-11.1693
-10.7681
-10.3415
-9.88837
-9.40829
-8.90139
-8.36879
-7.81267
-7.23643
-6.64476
-6.04359
-5.43991
-4.8416
-4.25699
-3.69441
-3.16171
-2.66569
-2.21174
-1.80345
-1.44258
-1.12906
-0.861279
-0.636347
-0.45052
-0.299544
-0.17898
-0.0844533
-0.0118298
0.0426658
0.082389
0.110254
0.128741
0.13992
0.145493
0.146831
0.145024
0.140921
0.135172
0.128266
0.12057
0.112332
0.103759
0.0949339
0.0860223
0.0769079
0.0679543
0.0585173
0.0498952
0.0395681
0.0323989
0.0190931
0.0173062
-0.00610179
-14.7282
-14.7647
-14.799
-14.8314
-14.864
-14.8986
-14.9368
-14.9805
-15.0312
-15.0894
-15.1546
-15.2257
-15.3011
-15.3783
-15.4548
-15.5279
-15.5953
-15.6545
-15.7038
-15.7415
-15.7663
-15.7774
-15.7741
-15.756
-15.723
-15.675
-15.6121
-15.5343
-15.4421
-15.3355
-15.2149
-15.0805
-14.9327
-14.7717
-14.5977
-14.411
-14.2115
-13.9994
-13.7744
-13.5363
-13.2845
-13.0185
-12.7373
-12.44
-12.1252
-11.7917
-11.4379
-11.0624
-10.6638
-10.2407
-9.79244
-9.31852
-8.81929
-8.2959
-7.75056
-7.18655
-6.60836
-6.02162
-5.43294
-4.8497
-4.27971
-3.73078
-3.21026
-2.72456
-2.27876
-1.87635
-1.51908
-1.20706
-0.938914
-0.712073
-0.523127
-0.368151
-0.243004
-0.143564
-0.0659032
-0.00640597
0.0381658
0.0706446
0.0934577
0.108647
0.117901
0.122591
0.123817
0.122444
0.119141
0.114418
0.108662
0.102145
0.0950926
0.0876094
0.0798762
0.0718008
0.0637478
0.0551205
0.0471662
0.037517
0.0307705
0.0182194
0.016376
-0.00553443
-14.7132
-14.7478
-14.7812
-14.8135
-14.8463
-14.8808
-14.9185
-14.9609
-15.0092
-15.0637
-15.1237
-15.1886
-15.2568
-15.3262
-15.3946
-15.4598
-15.5195
-15.5717
-15.6146
-15.6467
-15.6667
-15.6737
-15.6671
-15.6465
-15.6115
-15.562
-15.498
-15.4197
-15.3271
-15.2205
-15.1001
-14.966
-14.8187
-14.6582
-14.4847
-14.2985
-14.0995
-13.8878
-13.6631
-13.4252
-13.1737
-12.9078
-12.6268
-12.3298
-12.0155
-11.6829
-11.3305
-10.957
-10.5611
-10.1419
-9.69867
-9.23108
-8.73961
-8.22548
-7.69086
-7.13895
-6.57403
-6.00144
-5.42741
-4.85887
-4.30314
-3.76751
-3.25888
-2.78327
-2.3455
-1.94891
-1.5953
-1.28488
-1.01651
-0.787926
-0.596029
-0.437209
-0.307611
-0.203361
-0.120738
-0.0562841
-0.00688334
0.0302117
0.0573718
0.076605
0.0895838
0.0976782
0.101993
0.103407
0.102607
0.100122
0.0963606
0.0916151
0.0861302
0.0800318
0.0735156
0.0665145
0.0593932
0.0516048
0.0443426
0.0353962
0.0290903
0.0173167
0.0154281
-0.0049648
-14.698
-14.7309
-14.7633
-14.7953
-14.828
-14.8623
-14.8993
-14.9402
-14.9858
-15.0363
-15.0913
-15.1501
-15.2113
-15.2733
-15.3341
-15.3918
-15.4442
-15.4897
-15.5264
-15.553
-15.5682
-15.5713
-15.5613
-15.5379
-15.5008
-15.4497
-15.3846
-15.3055
-15.2125
-15.1058
-14.9854
-14.8516
-14.7046
-14.5446
-14.3716
-14.1859
-13.9873
-13.776
-13.5517
-13.3141
-13.0628
-12.7972
-12.5166
-12.22
-11.9065
-11.575
-11.2242
-10.8529
-10.4602
-10.0451
-9.60703
-9.14594
-8.66233
-8.15748
-7.63353
-7.09358
-6.54172
-5.98299
-5.42328
-4.86907
-4.32721
-3.80454
-3.30751
-2.84176
-2.41188
-2.02108
-1.67115
-1.36242
-1.09398
-0.863813
-0.669135
-0.506629
-0.372718
-0.26377
-0.176265
-0.106909
-0.0527069
-0.0110007
0.0205199
0.0438254
0.0605688
0.072114
0.0795701
0.0838256
0.0855841
0.0853915
0.0836758
0.0807504
0.0768784
0.0722066
0.0669454
0.0610531
0.0548942
0.047973
0.0414269
0.0332071
0.0273602
0.0163837
0.0144661
-0.00440164
-14.6825
-14.7138
-14.745
-14.7764
-14.8084
-14.8419
-14.8778
-14.9168
-14.9596
-15.0062
-15.0564
-15.1095
-15.1644
-15.2195
-15.2732
-15.3238
-15.3694
-15.4084
-15.4391
-15.4604
-15.471
-15.4699
-15.4566
-15.4305
-15.3911
-15.3383
-15.272
-15.192
-15.0985
-14.9914
-14.871
-14.7374
-14.5906
-14.431
-14.2584
-14.0731
-13.875
-13.6641
-13.4401
-13.2029
-12.9519
-12.6868
-12.4066
-12.1108
-11.7983
-11.468
-11.1191
-10.7504
-10.361
-9.95018
-9.51753
-9.06308
-8.58743
-8.09188
-7.57855
-7.05041
-6.51138
-5.96623
-5.42049
-4.88023
-4.35188
-3.84182
-3.35608
-2.89998
-2.47785
-2.09278
-1.74655
-1.43961
-1.17122
-0.939643
-0.742352
-0.576321
-0.438239
-0.32471
-0.232414
-0.158217
-0.0992491
-0.0529444
-0.0170565
0.0103437
0.0308858
0.0459244
0.0565695
0.0637181
0.0680869
0.0702385
0.0706189
0.069561
0.067346
0.0641416
0.0601723
0.0554224
0.0502557
0.0442291
0.0384227
0.0309518
0.0255829
0.0154197
0.0134937
-0.00385378
-14.6665
-14.6963
-14.7263
-14.7567
-14.7878
-14.8202
-14.8546
-14.8916
-14.9314
-14.9743
-15.0199
-15.0676
-15.1164
-15.1651
-15.2121
-15.256
-15.295
-15.3278
-15.3528
-15.3689
-15.3749
-15.3699
-15.3531
-15.3242
-15.2825
-15.2279
-15.1602
-15.0792
-14.985
-14.8776
-14.757
-14.6234
-14.4768
-14.3174
-14.1452
-13.9603
-13.7626
-13.5521
-13.3286
-13.0917
-12.8413
-12.5766
-12.2972
-12.0022
-11.6908
-11.3622
-11.0153
-10.6494
-10.2636
-9.85726
-9.43021
-8.98254
-8.51492
-8.02868
-7.52588
-7.00941
-6.48299
-5.95111
-5.41899
-4.89232
-4.3771
-3.87929
-3.40455
-2.95787
-2.54334
-2.16394
-1.82143
-1.51636
-1.24816
-1.01532
-0.815586
-0.646193
-0.504086
-0.3861
-0.289109
-0.21014
-0.14645
-0.0955666
-0.0553116
-0.0238007
0.000568767
0.0191387
0.0330171
0.0431066
0.0501351
0.0546802
0.0572046
0.0580598
0.0575444
0.0558467
0.0532049
0.04963
0.0454842
0.0403786
0.0353346
0.0286335
0.0237615
0.0144243
0.0125147
-0.00332991
-14.6501
-14.6784
-14.7071
-14.7363
-14.7661
-14.7972
-14.8298
-14.8645
-14.9014
-14.9406
-14.9817
-15.0243
-15.0674
-15.11
-15.1508
-15.1883
-15.2212
-15.248
-15.2675
-15.2785
-15.28
-15.271
-15.2509
-15.219
-15.175
-15.1185
-15.0493
-14.9672
-14.8722
-14.7643
-14.6435
-14.5098
-14.3633
-14.2041
-14.0322
-13.8476
-13.6503
-13.4402
-13.2171
-12.9808
-12.7309
-12.4668
-12.1882
-11.8943
-11.5843
-11.2574
-10.9129
-10.55
-10.1679
-9.76637
-9.34509
-8.90432
-8.4448
-7.96785
-7.47551
-6.97054
-6.45648
-5.93759
-5.41874
-4.90529
-4.40282
-3.91692
-3.45287
-3.01538
-2.6083
-2.2345
-1.89572
-1.5926
-1.32471
-1.09076
-0.888743
-0.716151
-0.570169
-0.447854
-0.346271
-0.262607
-0.194245
-0.138811
-0.0941953
-0.0585639
-0.0303439
-0.0082096
0.00894198
0.0220166
0.0317512
0.0387366
0.0434505
0.0462624
0.0474874
0.0473342
0.0460541
0.0436852
0.0405881
0.0364283
0.0321686
0.0262564
0.0218999
0.0133982
0.0115334
-0.00283827
-14.6331
-14.6599
-14.6872
-14.715
-14.7435
-14.7729
-14.8036
-14.8358
-14.8697
-14.9053
-14.9422
-14.9799
-15.0176
-15.0545
-15.0893
-15.1208
-15.1478
-15.169
-15.1832
-15.1894
-15.1864
-15.1735
-15.15
-15.1152
-15.0687
-15.0102
-14.9394
-14.8561
-14.7603
-14.6517
-14.5305
-14.3967
-14.2502
-14.0911
-13.9194
-13.7352
-13.5382
-13.3286
-13.1059
-12.8701
-12.6208
-12.3576
-12.0799
-11.7872
-11.4787
-11.1539
-10.8119
-10.4522
-10.0742
-9.67756
-9.2622
-8.82844
-8.37706
-7.90939
-7.42741
-6.93378
-6.43185
-5.92563
-5.41971
-4.91909
-4.429
-3.95465
-3.501
-3.07245
-2.67267
-2.3044
-1.96935
-1.66823
-1.40077
-1.16586
-0.96173
-0.786101
-0.636397
-0.509884
-0.403818
-0.315543
-0.242567
-0.182615
-0.133653
-0.0938975
-0.0618096
-0.0360829
-0.0156226
0.000477679
0.0129614
0.0224308
0.0293773
0.0341873
0.0371916
0.0386188
0.0387331
0.0375998
0.0355773
0.0323868
0.0289319
0.0238258
0.020003
0.0123424
0.0105541
-0.0023864
-14.6155
-14.6409
-14.6667
-14.693
-14.7198
-14.7474
-14.776
-14.8057
-14.8366
-14.8686
-14.9013
-14.9344
-14.9671
-14.9986
-15.0278
-15.0537
-15.0751
-15.0909
-15.1
-15.1014
-15.0941
-15.0773
-15.0504
-15.0127
-14.9638
-14.9032
-14.8307
-14.7461
-14.6493
-14.54
-14.4183
-14.2842
-14.1377
-13.9786
-13.8071
-13.6231
-13.4265
-13.2173
-12.9951
-12.76
-12.5114
-12.249
-11.9724
-11.6811
-11.3744
-11.0517
-10.7125
-10.3562
-9.98243
-9.59087
-9.18158
-8.75493
-8.31172
-7.8533
-7.38158
-6.8991
-6.40904
-5.91519
-5.42184
-4.93368
-4.4556
-3.99246
-3.5489
-3.12906
-2.7364
-2.37357
-2.04225
-1.74319
-1.47626
-1.24054
-1.03445
-0.855948
-0.702674
-0.572101
-0.461666
-0.368867
-0.291341
-0.226914
-0.173626
-0.129749
-0.0937812
-0.0644393
-0.0406391
-0.0214769
-0.00620453
0.00578952
0.0150092
0.0218561
0.0266764
0.0297178
0.0312573
0.0313873
0.030464
0.0282644
0.0256332
0.0213485
0.0180765
0.0112594
0.00958119
-0.00198074
-14.5974
-14.6213
-14.6455
-14.6702
-14.6953
-14.7209
-14.7473
-14.7744
-14.8023
-14.8307
-14.8595
-14.8882
-14.916
-14.9424
-14.9663
-14.9868
-15.0029
-15.0136
-15.0178
-15.0146
-15.0031
-14.9826
-14.9523
-14.9116
-14.8602
-14.7975
-14.7233
-14.6373
-14.5393
-14.4293
-14.307
-14.1726
-14.0258
-13.8668
-13.6954
-13.5116
-13.3153
-13.1065
-12.8849
-12.6504
-12.4026
-12.1412
-11.8658
-11.576
-11.2712
-10.951
-10.6147
-10.2621
-9.89267
-9.50637
-9.10326
-8.68379
-8.24879
-7.79957
-7.33799
-6.86647
-6.38804
-5.90624
-5.42512
-4.94905
-4.48259
-4.0303
-3.59652
-3.18514
-2.79945
-2.44196
-2.11434
-1.8174
-1.55111
-1.3147
-1.10681
-0.925594
-0.768904
-0.634411
-0.519725
-0.422498
-0.340493
-0.271637
-0.21405
-0.16606
-0.126207
-0.0932321
-0.0660659
-0.0438095
-0.0257127
-0.0111566
0.000373463
0.00929366
0.0159641
0.0206515
0.0236447
0.0250637
0.0252621
0.0240731
0.0222827
0.0188325
0.0161269
0.0101527
0.0086194
-0.00162636
-14.5787
-14.601
-14.6237
-14.6466
-14.6699
-14.6935
-14.7176
-14.742
-14.7669
-14.7919
-14.8168
-14.8412
-14.8645
-14.886
-14.905
-14.9204
-14.9315
-14.9372
-14.9367
-14.9291
-14.9135
-14.8893
-14.8556
-14.8121
-14.7581
-14.6932
-14.6172
-14.5297
-14.4306
-14.3196
-14.1967
-14.0618
-13.9148
-13.7557
-13.5844
-13.4008
-13.2048
-12.9964
-12.7754
-12.5415
-12.2946
-12.0343
-11.7603
-11.4722
-11.1695
-10.8518
-10.5187
-10.1698
-9.80499
-9.42409
-9.02728
-8.61506
-8.18826
-7.74819
-7.29663
-6.83588
-6.36881
-5.89876
-5.4295
-4.96514
-4.50993
-4.06814
-3.64383
-3.24067
-2.86176
-2.50951
-2.18557
-1.89078
-1.62521
-1.38826
-1.17871
-0.994943
-0.834992
-0.696718
-0.577903
-0.476348
-0.389941
-0.31671
-0.254857
-0.202769
-0.15903
-0.12241
-0.0918563
-0.0664779
-0.045525
-0.0283731
-0.0144984
-0.00347172
0.00508023
0.0114428
0.0159159
0.0186474
0.0199878
0.0198269
0.0188923
0.0162877
0.0141621
0.00902706
0.00767341
-0.00132655
-14.5594