/*--------------------------------*- C++ -*----------------------------------*\
| =========                 |                                                 |
| \\      /  F ield         | OpenFOAM: The Open Source CFD Toolbox           |
|  \\    /   O peration     | Version:  2.1.1                                 |
|   \\  /    A nd           | Web:      www.OpenFOAM.org                      |
|    \\/     M anipulation  |                                                 |
\*---------------------------------------------------------------------------*/
FoamFile
{
    version     2.0;
    format      ascii;
    class       surfaceScalarField;
    location    "0.1";
    object      phi;
}
// * * * * * * * * * * * * * * * * * * * * * * * * * * * * * * * * * * * * * //

dimensions      [0 3 -1 0 0 0 0];

internalField   nonuniform List<scalar> 
13452
(
6.89923e-05
-5.0507e-07
6.88137e-05
1.78607e-07
6.82025e-05
6.11187e-07
6.72554e-05
9.47159e-07
6.61791e-05
1.07624e-06
6.5088e-05
1.09115e-06
6.40237e-05
1.0643e-06
6.30036e-05
1.02015e-06
6.20359e-05
9.67635e-07
6.11242e-05
9.11671e-07
6.02696e-05
8.54667e-07
5.94715e-05
7.98075e-07
5.87287e-05
7.4284e-07
5.8039e-05
6.89625e-07
5.74002e-05
6.38876e-07
5.68093e-05
5.90874e-07
5.62635e-05
5.45775e-07
5.57599e-05
5.03632e-07
5.52955e-05
4.6443e-07
5.48673e-05
4.28103e-07
5.44728e-05
3.94551e-07
5.41091e-05
3.63666e-07
5.37738e-05
3.35343e-07
5.34643e-05
3.09503e-07
5.31782e-05
2.86128e-07
5.29128e-05
2.65313e-07
5.26655e-05
2.47357e-07
5.24324e-05
2.33109e-07
5.22084e-05
2.24022e-07
5.19829e-05
2.25447e-07
5.17382e-05
2.44688e-07
5.14249e-05
3.13329e-07
5.08829e-07
5.09161e-05
7.0165e-05
-2.26085e-07
7.00412e-05
3.02401e-07
7.01818e-05
4.70519e-07
7.05092e-05
6.19773e-07
7.08599e-05
7.25607e-07
7.11589e-05
7.92066e-07
7.13838e-05
8.39398e-07
7.15362e-05
8.67751e-07
7.1624e-05
8.79819e-07
7.16561e-05
8.7958e-07
7.16408e-05
8.69982e-07
7.15855e-05
8.53354e-07
7.14969e-05
8.31501e-07
7.13806e-05
8.0589e-07
7.12418e-05
7.77695e-07
7.10848e-05
7.47855e-07
7.09135e-05
7.17118e-07
7.0731e-05
6.86071e-07
7.05403e-05
6.55171e-07
7.03436e-05
6.24769e-07
7.0143e-05
5.95134e-07
6.99402e-05
5.66475e-07
6.97366e-05
5.38966e-07
6.95333e-05
5.12769e-07
6.93314e-05
4.88075e-07
6.91316e-05
4.65125e-07
6.89346e-05
4.44381e-07
6.87413e-05
4.26405e-07
6.85524e-05
4.12851e-07
6.83735e-05
4.04402e-07
6.82101e-05
4.08029e-07
6.81128e-05
4.10676e-07
4.41481e-07
6.81801e-05
7.22816e-05
-5.11932e-08
7.23969e-05
1.87165e-07
7.25018e-05
3.65557e-07
7.25886e-05
5.33026e-07
7.26721e-05
6.42061e-07
7.27545e-05
7.09716e-07
7.2841e-05
7.52878e-07
7.29282e-05
7.80602e-07
7.30119e-05
7.96063e-07
7.30897e-05
8.01812e-07
7.31599e-05
7.99803e-07
7.32216e-05
7.91608e-07
7.32746e-05
7.78505e-07
7.33189e-05
7.61611e-07
7.33547e-05
7.41869e-07
7.33825e-05
7.20065e-07
7.34028e-05
6.96853e-07
7.34161e-05
6.72767e-07
7.3423e-05
6.4824e-07
7.34241e-05
6.23619e-07
7.34201e-05
5.99189e-07
7.34114e-05
5.75184e-07
7.33985e-05
5.51812e-07
7.3382e-05
5.29269e-07
7.33623e-05
5.07783e-07
7.33398e-05
4.87618e-07
7.3315e-05
4.69216e-07
7.32884e-05
4.53032e-07
7.32609e-05
4.40314e-07
7.32343e-05
4.30995e-07
7.32125e-05
4.29841e-07
7.31972e-05
4.25986e-07
4.48379e-07
7.31903e-05
7.45185e-05
-4.30928e-08
7.44883e-05
2.17409e-07
7.44769e-05
3.7689e-07
7.45167e-05
4.93279e-07
7.45772e-05
5.81548e-07
7.46438e-05
6.43088e-07
7.471e-05
6.86677e-07
7.47743e-05
7.16369e-07
7.48362e-05
7.34117e-07
7.48957e-05
7.42286e-07
7.49526e-05
7.42902e-07
7.50067e-05
7.37521e-07
7.50578e-05
7.27389e-07
7.51059e-05
7.13564e-07
7.51508e-05
6.96922e-07
7.51927e-05
6.78192e-07
7.52316e-05
6.57973e-07
7.52676e-05
6.3676e-07
7.53009e-05
6.14957e-07
7.53316e-05
5.92892e-07
7.536e-05
5.70838e-07
7.53861e-05
5.49023e-07
7.54103e-05
5.27651e-07
7.54326e-05
5.06915e-07
7.54534e-05
4.87029e-07
7.54728e-05
4.68228e-07
7.54911e-05
4.50861e-07
7.55089e-05
4.35227e-07
7.55272e-05
4.22047e-07
7.55472e-05
4.10971e-07
7.55734e-05
4.03634e-07
7.56063e-05
3.93167e-07
3.84742e-07
7.56699e-05
7.66036e-05
9.1892e-09
7.66283e-05
1.92641e-07
7.66649e-05
3.40302e-07
7.67033e-05
4.54947e-07
7.67419e-05
5.4293e-07
7.67817e-05
6.03261e-07
7.6824e-05
6.44402e-07
7.68683e-05
6.7206e-07
7.69136e-05
6.88836e-07
7.6959e-05
6.96876e-07
7.70039e-05
6.97944e-07
7.7048e-05
6.93412e-07
7.7091e-05
6.84398e-07
7.71327e-05
6.71863e-07
7.7173e-05
6.56611e-07
7.72119e-05
6.39313e-07
7.72494e-05
6.2053e-07
7.72854e-05
6.00722e-07
7.73201e-05
5.8027e-07
7.73535e-05
5.59484e-07
7.73857e-05
5.38623e-07
7.74168e-05
5.17904e-07
7.7447e-05
4.9752e-07
7.74762e-05
4.77648e-07
7.75048e-05
4.58476e-07
7.75328e-05
4.40189e-07
7.75607e-05
4.23027e-07
7.75887e-05
4.07143e-07
7.76179e-05
3.92855e-07
7.76493e-05
3.79639e-07
7.76851e-05
3.67815e-07
7.77254e-05
3.52855e-07
3.36452e-07
7.77737e-05
7.88312e-05
2.38999e-08
7.88389e-05
1.84923e-07
7.88572e-05
3.21999e-07
7.88863e-05
4.25878e-07
7.89229e-05
5.06336e-07
7.89624e-05
5.63777e-07
7.90029e-05
6.03912e-07
7.90437e-05
6.31255e-07
7.90844e-05
6.48099e-07
7.91249e-05
6.56416e-07
7.91649e-05
6.57927e-07
7.92043e-05
6.53985e-07
7.9243e-05
6.45686e-07
7.92809e-05
6.33954e-07
7.9318e-05
6.1956e-07
7.93541e-05
6.03146e-07
7.93894e-05
5.85243e-07
7.94239e-05
5.66291e-07
7.94575e-05
5.46653e-07
7.94903e-05
5.26626e-07
7.95225e-05
5.06456e-07
7.95541e-05
4.86349e-07
7.95851e-05
4.66484e-07
7.96157e-05
4.47021e-07
7.96461e-05
4.28111e-07
7.96764e-05
4.09889e-07
7.97069e-05
3.92496e-07
7.97381e-05
3.75966e-07
7.97706e-05
3.60342e-07
7.98052e-05
3.45066e-07
7.98432e-05
3.29795e-07
7.98844e-05
3.11681e-07
2.90459e-07
7.99304e-05
8.10848e-05
3.7664e-08
8.10949e-05
1.74828e-07
8.11185e-05
2.98345e-07
8.11494e-05
3.94965e-07
8.11844e-05
4.71379e-07
8.12207e-05
5.27436e-07
8.12577e-05
5.66908e-07
8.12952e-05
5.93798e-07
8.13328e-05
6.10489e-07
8.13703e-05
6.18913e-07
8.14075e-05
6.2072e-07
8.14443e-05
6.17217e-07
8.14805e-05
6.0946e-07
8.15161e-05
5.98335e-07
8.15511e-05
5.84583e-07
8.15854e-05
5.68819e-07
8.16191e-05
5.51554e-07
8.16522e-05
5.3321e-07
8.16847e-05
5.14136e-07
8.17167e-05
4.94617e-07
8.17483e-05
4.74888e-07
8.17795e-05
4.55146e-07
8.18104e-05
4.35553e-07
8.18412e-05
4.16249e-07
8.1872e-05
3.97354e-07
8.19029e-05
3.78954e-07
8.19343e-05
3.61112e-07
8.19665e-05
3.43781e-07
8.2e-05
3.2685e-07
8.20352e-05
3.09795e-07
8.2073e-05
2.92082e-07
8.21127e-05
2.71932e-07
2.4876e-07
8.21544e-05
8.34101e-05
4.3077e-08
8.34202e-05
1.64781e-07
8.34412e-05
2.77325e-07
8.3469e-05
3.67179e-07
8.35017e-05
4.38696e-07
8.35368e-05
4.92287e-07
8.35731e-05
5.30638e-07
8.36098e-05
5.57056e-07
8.36466e-05
5.73717e-07
8.36831e-05
5.82376e-07
8.37193e-05
5.84568e-07
8.3755e-05
5.81545e-07
8.37901e-05
5.7433e-07
8.38246e-05
5.6378e-07
8.38586e-05
5.50611e-07
8.3892e-05
5.35421e-07
8.39249e-05
5.18703e-07
8.39572e-05
5.00866e-07
8.39891e-05
4.82248e-07
8.40206e-05
4.63123e-07
8.40518e-05
4.43718e-07
8.40827e-05
4.24217e-07
8.41135e-05
4.0477e-07
8.41442e-05
3.85497e-07
8.41751e-05
3.66488e-07
8.42062e-05
3.47795e-07
8.42379e-05
3.29425e-07
8.42704e-05
3.11286e-07
8.43041e-05
2.93197e-07
8.43392e-05
2.7471e-07
8.43759e-05
2.55306e-07
8.4414e-05
2.33885e-07
2.0996e-07
8.44528e-05
8.57964e-05
4.54306e-08
8.58063e-05
1.54815e-07
8.58268e-05
2.56906e-07
8.58538e-05
3.40165e-07
8.58854e-05
4.07057e-07
8.59195e-05
4.58148e-07
8.59549e-05
4.95285e-07
8.59908e-05
5.21117e-07
8.60269e-05
5.37622e-07
8.60629e-05
5.46418e-07
8.60985e-05
5.48931e-07
8.61337e-05
5.46347e-07
8.61684e-05
5.39643e-07
8.62026e-05
5.29639e-07
8.62361e-05
5.17026e-07
8.62692e-05
5.02376e-07
8.63017e-05
4.86168e-07
8.63338e-05
4.68796e-07
8.63655e-05
4.50587e-07
8.63968e-05
4.31805e-07
8.64278e-05
4.12669e-07
8.64587e-05
3.93352e-07
8.64895e-05
3.73991e-07
8.65203e-05
3.54689e-07
8.65512e-05
3.35517e-07
8.65825e-05
3.16497e-07
8.66144e-05
2.97607e-07
8.66469e-05
2.78737e-07
8.66804e-05
2.59694e-07
8.6715e-05
2.40118e-07
8.67507e-05
2.1959e-07
8.67872e-05
1.97446e-07
1.73391e-07
8.68237e-05
8.82501e-05
4.53153e-08
8.82603e-05
1.44667e-07
8.82797e-05
2.37451e-07
8.83054e-05
3.14506e-07
8.83356e-05
3.76881e-07
8.83685e-05
4.25184e-07
8.8403e-05
4.60769e-07
8.84384e-05
4.85766e-07
8.84741e-05
5.01937e-07
8.85097e-05
5.10746e-07
8.85452e-05
5.13494e-07
8.85802e-05
5.11288e-07
8.86148e-05
5.05048e-07
8.86489e-05
4.95555e-07
8.86825e-05
4.83466e-07
8.87155e-05
4.69331e-07
8.87481e-05
4.53609e-07
8.87802e-05
4.3668e-07
8.88119e-05
4.18857e-07
8.88433e-05
4.00398e-07
8.88745e-05
3.81507e-07
8.89055e-05
3.62352e-07
8.89364e-05
3.43057e-07
8.89674e-05
3.23712e-07
8.89986e-05
3.04372e-07
8.903e-05
2.85047e-07
8.90619e-05
2.65697e-07
8.90944e-05
2.46217e-07
8.91277e-05
2.26433e-07
8.91617e-05
2.06076e-07
8.91965e-05
1.84839e-07
8.92316e-05
1.62337e-07
1.38437e-07
8.92666e-05
9.07728e-05
4.38234e-08
9.07829e-05
1.34549e-07
9.08015e-05
2.18899e-07
9.0826e-05
2.89955e-07
9.0855e-05
3.4789e-07
9.08869e-05
3.93259e-07
9.09206e-05
4.27087e-07
9.09553e-05
4.51063e-07
9.09905e-05
4.66728e-07
9.10259e-05
4.75398e-07
9.10611e-05
4.78255e-07
9.10961e-05
4.76323e-07
9.11307e-05
4.70466e-07
9.11648e-05
4.61418e-07
9.11985e-05
4.49803e-07
9.12317e-05
4.36142e-07
9.12644e-05
4.20874e-07
9.12967e-05
4.04363e-07
9.13287e-05
3.86908e-07
9.13603e-05
3.68755e-07
9.13917e-05
3.50101e-07
9.1423e-05
3.311e-07
9.14541e-05
3.11872e-07
9.14854e-05
2.92494e-07
9.15167e-05
2.73013e-07
9.15483e-05
2.53431e-07
9.15803e-05
2.3371e-07
9.16128e-05
2.13759e-07
9.16458e-05
1.93439e-07
9.16793e-05
1.72558e-07
9.17132e-05
1.50915e-07
9.17473e-05
1.28299e-07
1.04691e-07
9.1781e-05
9.3367e-05
4.14999e-08
9.3377e-05
1.24485e-07
9.33948e-05
2.0117e-07
9.34182e-05
2.66474e-07
9.34461e-05
3.20074e-07
9.34769e-05
3.62413e-07
9.35097e-05
3.94292e-07
9.35437e-05
4.17056e-07
9.35784e-05
4.32036e-07
9.36134e-05
4.40409e-07
9.36484e-05
4.43243e-07
9.36833e-05
4.41473e-07
9.37178e-05
4.35906e-07
9.3752e-05
4.27226e-07
9.37858e-05
4.16021e-07
9.38191e-05
4.02784e-07
9.38521e-05
3.8793e-07
9.38846e-05
3.71806e-07
9.39169e-05
3.54696e-07
9.39488e-05
3.36835e-07
9.39805e-05
3.18409e-07
9.4012e-05
2.99565e-07
9.40435e-05
2.80413e-07
9.40749e-05
2.61026e-07
9.41065e-05
2.41445e-07
9.41383e-05
2.21674e-07
9.41703e-05
2.0168e-07
9.42027e-05
1.81395e-07
9.42354e-05
1.60719e-07
9.42684e-05
1.39525e-07
9.43016e-05
1.17694e-07
9.43348e-05
9.51243e-08
7.18644e-08
9.43676e-05
9.60349e-05
3.87267e-08
9.60448e-05
1.14563e-07
9.60617e-05
1.84213e-07
9.60842e-05
2.43991e-07
9.61109e-05
2.93344e-07
9.61408e-05
3.32592e-07
9.61727e-05
3.62375e-07
9.6206e-05
3.83768e-07
9.62401e-05
3.97909e-07
9.62747e-05
4.0584e-07
9.63094e-05
4.08519e-07
9.63441e-05
4.068e-07
9.63786e-05
4.01425e-07
9.64127e-05
3.93031e-07
9.64466e-05
3.82167e-07
9.64801e-05
3.69297e-07
9.65132e-05
3.54813e-07
9.6546e-05
3.3904e-07
9.65784e-05
3.22251e-07
9.66106e-05
3.04665e-07
9.66425e-05
2.86462e-07
9.66743e-05
2.67779e-07
9.6706e-05
2.48719e-07
9.67377e-05
2.29354e-07
9.67694e-05
2.09722e-07
9.68012e-05
1.89833e-07
9.68333e-05
1.69666e-07
9.68655e-05
1.49175e-07
9.68979e-05
1.28297e-07
9.69305e-05
1.06956e-07
9.69631e-05
8.50943e-08
9.69955e-05
6.26772e-08
3.97883e-08
9.70276e-05
9.87787e-05
3.57316e-08
9.87884e-05
1.04837e-07
9.88047e-05
1.67962e-07
9.88263e-05
2.22435e-07
9.8852e-05
2.67631e-07
9.88808e-05
3.0376e-07
9.89118e-05
3.31334e-07
9.89444e-05
3.51218e-07
9.89779e-05
3.64379e-07
9.9012e-05
3.71734e-07
9.90464e-05
3.74136e-07
9.90809e-05
3.72358e-07
9.91152e-05
3.6708e-07
9.91493e-05
3.58892e-07
9.91832e-05
3.48301e-07
9.92168e-05
3.35742e-07
9.925e-05
3.21582e-07
9.92829e-05
3.06128e-07
9.93155e-05
2.89634e-07
9.93479e-05
2.72311e-07
9.938e-05
2.54327e-07
9.9412e-05
2.35812e-07
9.94438e-05
2.16867e-07
9.94756e-05
1.97558e-07
9.95074e-05
1.77929e-07
9.95393e-05
1.57994e-07
9.95712e-05
1.37747e-07
9.96032e-05
1.17165e-07
9.96353e-05
9.62141e-08
9.96674e-05
7.48588e-08
9.96994e-05
5.30816e-08
9.97312e-05
3.08887e-08
8.37907e-09
9.97626e-05
0.000101601
3.26548e-08
0.00010161
9.5348e-08
0.000101626
1.52366e-07
0.000101647
2.01741e-07
0.000101671
2.42869e-07
0.000101699
2.75866e-07
0.000101729
3.01145e-07
0.000101761
3.19406e-07
0.000101794
3.31464e-07
0.000101828
3.38121e-07
0.000101862
3.40134e-07
0.000101896
3.38197e-07
0.00010193
3.32928e-07
0.000101964
3.24868e-07
0.000101998
3.14486e-07
0.000102032
3.02185e-07
0.000102065
2.88307e-07
0.000102098
2.73139e-07
0.00010213
2.56922e-07
0.000102163
2.39852e-07
0.000102195
2.22087e-07
0.000102227
2.03754e-07
0.000102259
1.84947e-07
0.000102291
1.65736e-07
0.000102323
1.46164e-07
0.000102354
1.26255e-07
0.000102386
1.06017e-07
0.000102418
8.54448e-08
0.00010245
6.45289e-08
0.000102481
4.32638e-08
0.000102513
2.16588e-08
0.000102544
-2.57188e-10
-2.23814e-08
0.000102575
0.000104503
2.95785e-08
0.000104513
8.61241e-08
0.000104528
1.37374e-07
0.000104548
1.81845e-07
0.000104571
2.18992e-07
0.000104598
2.48861e-07
0.000104628
2.71783e-07
0.000104659
2.88325e-07
0.000104691
2.99173e-07
0.000104724
3.05024e-07
0.000104758
3.06545e-07
0.000104792
3.04355e-07
0.000104826
2.99013e-07
0.00010486
2.9101e-07
0.000104893
2.80778e-07
0.000104927
2.68687e-07
0.00010496
2.55055e-07
0.000104993
2.40148e-07
0.000105026
2.24191e-07
0.000105058
2.07368e-07
0.00010509
1.8983e-07
0.000105122
1.71696e-07
0.000105154
1.53059e-07
0.000105186
1.33987e-07
0.000105218
1.14529e-07
0.000105249
9.47164e-08
0.000105281
7.45683e-08
0.000105312
5.40958e-08
0.000105343
3.33083e-08
0.000105374
1.222e-08
0.000105405
-9.14234e-09
0.000105436
-3.07383e-08
-5.24664e-08
0.000105466
0.000107489
2.6549e-08
0.000107498
7.71789e-08
0.000107512
1.22943e-07
0.000107532
1.62688e-07
0.000107555
1.95939e-07
0.000107581
2.22695e-07
0.000107609
2.43213e-07
0.00010764
2.57959e-07
0.000107671
2.67506e-07
0.000107704
2.72456e-07
0.000107737
2.73393e-07
0.000107771
2.70866e-07
0.000107804
2.65375e-07
0.000107838
2.57366e-07
0.000107871
2.47231e-07
0.000107905
2.35307e-07
0.000107938
2.21889e-07
0.000107971
2.07222e-07
0.000108004
1.91515e-07
0.000108036
1.74941e-07
0.000108068
1.57642e-07
0.0001081
1.3973e-07
0.000108132
1.21296e-07
0.000108163
1.0241e-07
0.000108195
8.31239e-08
0.000108226
6.34755e-08
0.000108257
4.3494e-08
0.000108288
2.32029e-08
0.000108319
2.62514e-09
0.000108349
-1.82117e-08
0.000108379
-3.92703e-08
0.000108409
-6.05053e-08
-8.18195e-08
0.000108438
0.00011056
2.35909e-08
0.000110568
6.8516e-08
0.000110582
1.09033e-07
0.000110601
1.44215e-07
0.000110623
1.73653e-07
0.000110649
1.97315e-07
0.000110676
2.154e-07
0.000110706
2.28287e-07
0.000110737
2.36457e-07
0.000110769
2.40423e-07
0.000110802
2.40695e-07
0.000110835
2.37756e-07
0.000110868
2.32051e-07
0.000110902
2.23978e-07
0.000110935
2.13892e-07
0.000110968
2.02101e-07
0.000111001
1.88871e-07
0.000111034
1.7443e-07
0.000111067
1.58969e-07
0.000111099
1.4265e-07
0.000111131
1.25606e-07
0.000111163
1.07944e-07
0.000111194
8.97528e-08
0.000111225
7.11012e-08
0.000111257
5.20446e-08
0.000111287
3.2627e-08
0.000111318
1.28847e-08
0.000111348
-7.1496e-09
0.000111378
-2.74435e-08
0.000111408
-4.79609e-08
0.000111438
-6.8659e-08
0.000111467
-8.94907e-08
-1.10364e-07
0.000111495
0.000113718
2.07154e-08
0.000113727
6.01312e-08
0.00011374
9.56067e-08
0.000113758
1.26373e-07
0.00011378
1.52079e-07
0.000113804
1.72673e-07
0.000113831
1.88305e-07
0.00011386
1.99285e-07
0.000113891
2.06013e-07
0.000113922
2.08925e-07
0.000113955
2.08462e-07
0.000113987
2.05046e-07
0.00011402
1.99067e-07
0.000114053
1.90882e-07
0.000114086
1.80807e-07
0.000114119
1.69118e-07
0.000114152
1.56058e-07
0.000114185
1.41834e-07
0.000114217
1.26622e-07
0.000114249
1.10571e-07
0.000114281
9.38041e-08
0.000114313
7.64248e-08
0.000114344
5.85175e-08
0.000114375
4.01515e-08
0.000114405
2.13838e-08
0.000114436
2.26256e-09
0.000114466
-1.71705e-08
0.000114496
-3.68764e-08
0.000114525
-5.68165e-08
0.000114554
-7.695e-08
0.000114582
-9.72312e-08
0.000114611
-1.17614e-07
-1.38011e-07
0.000114638
0.000116967
1.7926e-08
0.000116975
5.2015e-08
0.000116988
8.26289e-08
0.000117005
1.09113e-07
0.000117026
1.31164e-07
0.00011705
1.48718e-07
0.000117077
1.61888e-07
0.000117105
1.70924e-07
0.000117135
1.76157e-07
0.000117166
1.77956e-07
0.000117198
1.76699e-07
0.00011723
1.72749e-07
0.000117263
1.66449e-07
0.000117295
1.58112e-07
0.000117328
1.48015e-07
0.000117361
1.36407e-07
0.000117393
1.23506e-07
0.000117426
1.09497e-07
0.000117458
9.45419e-08
0.00011749
7.8776e-08
0.000117521
6.23147e-08
0.000117552
4.52546e-08
0.000117583
2.76769e-08
0.000117614
9.64983e-09
0.000117644
-8.7687e-09
0.000117674
-2.75282e-08
0.000117703
-4.65834e-08
0.000117732
-6.58914e-08
0.000117761
-8.541e-08
0.000117789
-1.05096e-07
0.000117816
-1.24902e-07
0.000117844
-1.44785e-07
-1.64662e-07
0.00011787
0.000120309
1.52218e-08
0.000120317
4.41541e-08
0.000120329
7.00657e-08
0.000120346
9.23877e-08
0.000120366
1.10856e-07
0.00012039
1.254e-07
0.000120415
1.36104e-07
0.000120443
1.43168e-07
0.000120472
1.46865e-07
0.000120503
1.47504e-07
0.000120534
1.45404e-07
0.000120566
1.40876e-07
0.000120598
1.34215e-07
0.000120631
1.25693e-07
0.000120663
1.15552e-07
0.000120695
1.04012e-07
0.000120728
9.12643e-08
0.00012076
7.74767e-08
0.000120791
6.27928e-08
0.000120823
4.73364e-08
0.000120854
3.12132e-08
0.000120885
1.45136e-08
0.000120915
-2.6854e-09
0.000120945
-2.03177e-08
0.000120975
-3.83256e-08
0.000121004
-5.66576e-08
0.000121032
-7.52665e-08
0.000121061
-9.41076e-08
0.000121088
-1.13137e-07
0.000121116
-1.3231e-07
0.000121142
-1.51582e-07
0.000121168
-1.70908e-07
-1.90214e-07
0.000121194
0.000123746
1.25993e-08
0.000123753
3.65332e-08
0.000123766
5.78851e-08
0.000123782
7.61531e-08
0.000123802
9.11056e-08
0.000123824
1.02671e-07
0.00012385
1.10909e-07
0.000123877
1.15981e-07
0.000123905
1.1811e-07
0.000123935
1.1755e-07
0.000123966
1.14568e-07
0.000123998
1.09427e-07
0.00012403
1.02376e-07
0.000124062
9.3648e-08
0.000124094
8.34476e-08
0.000124126
7.19687e-08
0.000124158
5.93793e-08
0.000124189
4.58253e-08
0.000124221
3.14344e-08
0.000124252
1.63173e-08
0.000124282
5.7065e-10
0.000124313
-1.57225e-08
0.000124342
-3.24902e-08
0.000124372
-4.9669e-08
0.000124401
-6.72026e-08
0.000124429
-8.504e-08
0.000124457
-1.03134e-07
0.000124484
-1.21438e-07
0.000124511
-1.3991e-07
0.000124537
-1.58504e-07
0.000124563
-1.77176e-07
0.000124588
-1.95887e-07
-2.14562e-07
0.000124612
0.000127281
1.00534e-08
0.000127288
2.91351e-08
0.0001273
4.60543e-08
0.000127316
6.03637e-08
0.000127335
7.18597e-08
0.000127358
8.04733e-08
0.000127382
8.62501e-08
0.000127409
8.93175e-08
0.000127437
8.98545e-08
0.000127467
8.80675e-08
0.000127497
8.4177e-08
0.000127528
7.83984e-08
0.000127559
7.09369e-08
0.000127591
6.19926e-08
0.000127623
5.17265e-08
0.000127654
4.03122e-08
0.000127686
2.78924e-08
0.000127717
1.45918e-08
0.000127748
5.23049e-10
0.000127779
-1.42191e-08
0.000127809
-2.95454e-08
0.000127838
-4.53818e-08
0.000127868
-6.16615e-08
0.000127896
-7.83251e-08
0.000127924
-9.53186e-08
0.000127952
-1.12593e-07
0.000127979
-1.301e-07
0.000128005
-1.47797e-07
0.000128031
-1.6564e-07
0.000128056
-1.83586e-07
0.00012808
-2.01592e-07
0.000128104
-2.1962e-07
-2.376e-07
0.000128127
0.000130917
7.58029e-09
0.000130925
2.19462e-08
0.000130936
3.45477e-08
0.000130951
4.49833e-08
0.00013097
5.30741e-08
0.000130992
5.87583e-08
0.000131016
6.20758e-08
0.000131042
6.31276e-08
0.00013107
6.20546e-08
0.000131099
5.90189e-08
0.000131129
5.42007e-08
0.00013116
4.7769e-08
0.000131191
3.98897e-08
0.000131222
3.07293e-08
0.000131253
2.03949e-08
0.000131285
9.06228e-09
0.000131316
-3.16682e-09
0.000131346
-1.61846e-08
0.000131377
-2.98969e-08
0.000131407
-4.42192e-08
0.000131436
-5.90757e-08
0.000131465
-7.43995e-08
0.000131494
-9.01302e-08
0.000131522
-1.06213e-07
0.000131549
-1.22597e-07
0.000131576
-1.39237e-07
0.000131602
-1.56086e-07
0.000131627
-1.73101e-07
0.000131652
-1.90243e-07
0.000131675
-2.07468e-07
0.000131699
-2.24737e-07
0.000131721
-2.42013e-07
-2.59231e-07
0.000131743
0.000134658
5.17099e-09
0.000134665
1.49432e-08
0.000134676
2.33238e-08
0.000134691
2.99541e-08
0.000134709
3.46823e-08
0.00013473
3.7457e-08
0.000134754
3.83207e-08
0.00013478
3.73522e-08
0.000134807
3.46593e-08
0.000134836
3.03646e-08
0.000134866
2.4614e-08
0.000134896
1.7521e-08
0.000134927
9.21648e-09
0.000134957
-1.12066e-10
0.000134988
-1.05322e-08
0.000135019
-2.1759e-08
0.00013505
-3.37693e-08
0.00013508
-4.64682e-08
0.00013511
-5.97797e-08
0.000135139
-7.36333e-08
0.000135168
-8.79646e-08
0.000135197
-1.02715e-07
0.000135224
-1.17832e-07
0.000135251
-1.33265e-07
0.000135278
-1.48968e-07
0.000135303
-1.64898e-07
0.000135328
-1.81013e-07
0.000135352
-1.97272e-07
0.000135376
-2.13635e-07
0.000135398
-2.30065e-07
0.00013542
-2.46522e-07
0.000135441
-2.62972e-07
-2.79353e-07
0.000135461
0.000138505
2.83695e-09
0.000138511
8.1426e-09
0.000138522
1.23994e-08
0.000138537
1.52805e-08
0.000138555
1.66572e-08
0.000138576
1.65117e-08
0.000138599
1.49121e-08
0.000138625
1.19118e-08
0.000138652
7.58906e-09
0.00013868
2.01204e-09
0.000138709
-4.66308e-09
0.000138739
-1.23984e-08
0.00013877
-2.10992e-08
0.0001388
-3.06688e-08
0.000138831
-4.1061e-08
0.000138861
-5.21583e-08
0.000138891
-6.39069e-08
0.000138921
-7.62415e-08
0.00013895
-8.91005e-08
0.000138979
-1.02428e-07
0.000139007
-1.1617e-07
0.000139035
-1.3028e-07
0.000139062
-1.44711e-07
0.000139088
-1.59421e-07
0.000139113
-1.74367e-07
0.000139138
-1.8951e-07
0.000139162
-2.04811e-07
0.000139185
-2.20234e-07
0.000139207
-2.35741e-07
0.000139228
-2.51297e-07
0.000139248
-2.66865e-07
0.000139268
-2.82414e-07
-2.97885e-07
0.000139286
0.000142462
5.24443e-10
0.000142468
1.45068e-09
0.000142479
1.63959e-09
0.000142493
8.3896e-10
0.000142511
-1.08231e-09
0.000142532
-4.15255e-09
0.000142555
-8.21324e-09
0.00014258
-1.32491e-08
0.000142607
-1.91995e-08
0.000142635
-2.60138e-08
0.000142664
-3.36274e-08
0.000142694
-4.20031e-08
0.000142724
-5.10903e-08
0.000142754
-6.0832e-08
0.000142784
-7.11952e-08
0.000142814
-8.21215e-08
0.000142843
-9.35647e-08
0.000142873
-1.05482e-07
0.000142901
-1.1783e-07
0.00014293
-1.30568e-07
0.000142957
-1.43656e-07
0.000142984
-1.57054e-07
0.00014301
-1.70725e-07
0.000143035
-1.84633e-07
0.000143059
-1.98742e-07
0.000143083
-2.13017e-07
0.000143106
-2.27424e-07
0.000143127
-2.41929e-07
0.000143148
-2.56498e-07
0.000143168
-2.71097e-07
0.000143187
-2.85695e-07
0.000143204
-3.00261e-07
-3.1474e-07
0.000143221
0.000146531
-1.59093e-09
0.000146538
-4.8609e-09
0.000146548
-8.66786e-09
0.000146562
-1.32675e-08
0.00014658
-1.86304e-08
0.0001466
-2.466e-08
0.000146623
-3.12479e-08
0.000146648
-3.83521e-08
0.000146675
-4.59415e-08
0.000146703
-5.40017e-08
0.000146732
-6.25183e-08
0.000146761
-7.14881e-08
0.000146791
-8.09057e-08
0.000146821
-9.07586e-08
0.000146851
-1.01038e-07
0.000146881
-1.11721e-07
0.00014691
-1.22787e-07
0.000146939
-1.34213e-07
0.000146967
-1.45975e-07
0.000146994
-1.58046e-07
0.000147021
-1.70397e-07
0.000147047
-1.83001e-07
0.000147072
-1.95829e-07
0.000147096
-2.08851e-07
0.00014712
-2.22037e-07
0.000147142
-2.35359e-07
0.000147163
-2.48786e-07
0.000147184
-2.62287e-07
0.000147203
-2.75833e-07
0.000147221
-2.89395e-07
0.000147238
-3.02941e-07
0.000147255
-3.16446e-07
-3.29858e-07
0.00014727
0.000150718
-4.00286e-09
0.000150725
-1.13921e-08
0.000150735
-1.90855e-08
0.000150749
-2.73135e-08
0.000150766
-3.59707e-08
0.000150787
-4.491e-08
0.000150809
-5.40013e-08
0.000150834
-6.31758e-08
0.000150861
-7.24135e-08
0.000150888
-8.17274e-08
0.000150917
-9.11448e-08
0.000150946
-1.00702e-07
0.000150976
-1.10435e-07
0.000151005
-1.2037e-07
0.000151035
-1.30528e-07
0.000151064
-1.40922e-07
0.000151093
-1.51556e-07
0.000151121
-1.62429e-07
0.000151149
-1.73536e-07
0.000151175
-1.84864e-07
0.000151201
-1.96401e-07
0.000151227
-2.08129e-07
0.000151251
-2.20029e-07
0.000151274
-2.32078e-07
0.000151296
-2.44254e-07
0.000151317
-2.56533e-07
0.000151338
-2.6889e-07
0.000151357
-2.81299e-07
0.000151374
-2.93733e-07
0.000151391
-3.06167e-07
0.000151407
-3.18573e-07
0.000151421
-3.30927e-07
-3.43182e-07
0.000151435
0.000155023
-5.27182e-09
0.000155028
-1.65864e-08
0.000155037
-2.84789e-08
0.000155051
-4.09464e-08
0.000155069
-5.34756e-08
0.000155089
-6.57139e-08
0.000155113
-7.7491e-08
0.000155139
-8.87703e-08
0.000155166
-9.95966e-08
0.000155194
-1.10052e-07
0.000155223
-1.20231e-07
0.000155253
-1.30227e-07
0.000155282
-1.40125e-07
0.000155312
-1.49997e-07
0.000155341
-1.599e-07
0.00015537
-1.69877e-07
0.000155399
-1.79959e-07
0.000155426
-1.90165e-07
0.000155453
-2.00507e-07
0.00015548
-2.1099e-07
0.000155505
-2.21612e-07
0.000155529
-2.32365e-07
0.000155552
-2.4324e-07
0.000155574
-2.54222e-07
0.000155595
-2.65294e-07
0.000155615
-2.76438e-07
0.000155634
-2.87635e-07
0.000155652
-2.98862e-07
0.000155668
-3.10098e-07
0.000155683
-3.21321e-07
0.000155697
-3.32505e-07
0.00015571
-3.43632e-07
-3.54658e-07
0.000155721
0.000159454
-9.04371e-09
0.000159461
-2.35453e-08
0.000159471
-3.85819e-08
0.000159485
-5.42286e-08
0.000159501
-7.00129e-08
0.000159521
-8.53574e-08
0.000159543
-9.98823e-08
0.000159568
-1.13442e-07
0.000159594
-1.26059e-07
0.000159622
-1.37839e-07
0.000159651
-1.48924e-07
0.00015968
-1.59461e-07
0.00015971
-1.69588e-07
0.000159739
-1.79423e-07
0.000159768
-1.89066e-07
0.000159797
-1.98596e-07
0.000159825
-2.08075e-07
0.000159852
-2.17549e-07
0.000159879
-2.27051e-07
0.000159905
-2.36602e-07
0.000159929
-2.46216e-07
0.000159953
-2.55898e-07
0.000159975
-2.65647e-07
0.000159996
-2.75459e-07
0.000160016
-2.85325e-07
0.000160035
-2.95232e-07
0.000160053
-3.05166e-07
0.000160069
-3.1511e-07
0.000160084
-3.25048e-07
0.000160098
-3.34958e-07
0.00016011
-3.44823e-07
0.000160121
-3.54622e-07
-3.6432e-07
0.000160131
0.000164003
-6.37849e-09
0.000164005
-2.52016e-08
0.000164013
-4.64587e-08
0.000164027
-6.84065e-08
0.000164046
-8.93286e-08
0.00016407
-1.0848e-07
0.000164095
-1.25721e-07
0.000164123
-1.4117e-07
0.000164152
-1.55047e-07
0.000164182
-1.67599e-07
0.000164212
-1.79071e-07
0.000164242
-1.89689e-07
0.000164272
-1.99649e-07
0.000164302
-2.09115e-07
0.000164331
-2.18222e-07
0.00016436
-2.27075e-07
0.000164387
-2.35757e-07
0.000164414
-2.44334e-07
0.00016444
-2.52852e-07
0.000164465
-2.61346e-07
0.000164488
-2.69838e-07
0.000164511
-2.78345e-07
0.000164532
-2.86872e-07
0.000164552
-2.95423e-07
0.000164571
-3.03993e-07
0.000164588
-3.12578e-07
0.000164604
-3.21166e-07
0.000164619
-3.29747e-07
0.000164632
-3.38308e-07
0.000164644
-3.46832e-07
0.000164654
-3.55304e-07
0.000164663
-3.6371e-07
-3.72016e-07
0.000164671
0.000168701
-1.57577e-08
0.000168709
-3.31413e-08
0.000168717
-5.39562e-08
0.000168726
-7.77481e-08
0.000168739
-1.0254e-07
0.000168757
-1.26096e-07
0.000168778
-1.47262e-07
0.000168803
-1.65835e-07
0.00016883
-1.8204e-07
0.000168859
-1.96213e-07
0.000168888
-2.08706e-07
0.000168918
-2.19848e-07
0.000168949
-2.29928e-07
0.000168979
-2.39188e-07
0.000169008
-2.47827e-07
0.000169037
-2.56002e-07
0.000169065
-2.63838e-07
0.000169092
-2.71432e-07
0.000169118
-2.78856e-07
0.000169143
-2.86167e-07
0.000169167
-2.93404e-07
0.000169189
-3.00595e-07
0.00016921
-3.07759e-07
0.000169229
-3.14907e-07
0.000169248
-3.22045e-07
0.000169264
-3.29171e-07
0.000169279
-3.36283e-07
0.000169293
-3.43373e-07
0.000169305
-3.50433e-07
0.000169316
-3.57452e-07
0.000169325
-3.64416e-07
0.000169332
-3.71315e-07
-3.78121e-07
0.000169338
0.000173491
4.26808e-09
0.000173485
-2.66879e-08
0.000173494
-6.3105e-08
0.000173515
-9.856e-08
0.000173542
-1.29776e-07
0.000173572
-1.56366e-07
0.000173604
-1.78941e-07
0.000173636
-1.98088e-07
0.000173669
-2.14381e-07
0.000173701
-2.28328e-07
0.000173732
-2.40383e-07
0.000173763
-2.50937e-07
0.000173794
-2.60311e-07
0.000173823
-2.68766e-07
0.000173852
-2.76508e-07
0.00017388
-2.83706e-07
0.000173906
-2.90489e-07
0.000173932
-2.9696e-07
0.000173956
-3.03199e-07
0.000173979
-3.09266e-07
0.000174001
-3.15208e-07
0.000174022
-3.21058e-07
0.000174041
-3.26839e-07
0.000174058
-3.3257e-07
0.000174075
-3.38259e-07
0.000174089
-3.43912e-07
0.000174103
-3.49529e-07
0.000174114
-3.55109e-07
0.000174125
-3.60646e-07
0.000174133
-3.66135e-07
0.00017414
-3.71565e-07
0.000174146
-3.76929e-07
-3.82202e-07
0.00017415
0.000178498
-2.48246e-08
0.0001785
-2.85568e-08
0.000178488
-5.163e-08
0.000178479
-8.96863e-08
0.000178481
-1.31688e-07
0.000178494
-1.69135e-07
0.000178515
-1.99803e-07
0.000178541
-2.24428e-07
0.000178571
-2.44327e-07
0.000178603
-2.60486e-07
0.000178636
-2.73709e-07
0.00017867
-2.84663e-07
0.000178704
-2.93878e-07
0.000178737
-3.01765e-07
0.000178769
-3.08645e-07
0.0001788
-3.14763e-07
0.00017883
-3.20309e-07
0.000178858
-3.25424e-07
0.000178885
-3.3022e-07
0.000178911
-3.34777e-07
0.000178935
-3.39158e-07
0.000178957
-3.43408e-07
0.000178978
-3.47561e-07
0.000178997
-3.5164e-07
0.000179014
-3.55661e-07
0.00017903
-3.59635e-07
0.000179044
-3.63567e-07
0.000179056
-3.67459e-07
0.000179067
-3.7131e-07
0.000179076
-3.75116e-07
0.000179083
-3.78874e-07
0.000179089
-3.82578e-07
-3.8621e-07
0.000179093
0.000183487
5.59335e-08
0.000183465
-6.55953e-09
0.0001835
-8.74802e-08
0.000183551
-1.4051e-07
0.000183601
-1.81781e-07
0.000183646
-2.13964e-07
0.000183686
-2.39788e-07
0.000183723
-2.6105e-07
0.000183757
-2.7847e-07
0.000183789
-2.92756e-07
0.00018382
-3.04575e-07
0.00018385
-3.14443e-07
0.000183879
-3.22758e-07
0.000183907
-3.2984e-07
0.000183934
-3.35942e-07
0.000183961
-3.41266e-07
0.000183986
-3.45971e-07
0.000184011
-3.50182e-07
0.000184035
-3.54e-07
0.000184058
-3.57503e-07
0.000184079
-3.60753e-07
0.0001841
-3.63797e-07
0.000184119
-3.66675e-07
0.000184136
-3.69414e-07
0.000184153
-3.72038e-07
0.000184168
-3.74564e-07
0.000184181
-3.77002e-07
0.000184193
-3.79363e-07
0.000184203
-3.81649e-07
0.000184212
-3.83864e-07
0.000184219
-3.86006e-07
0.000184225
-3.88073e-07
-3.90056e-07
0.000184229
0.000188861
7.27479e-09
0.000188795
5.89896e-08
0.000188709
-1.11652e-09
0.000188644
-7.62594e-08
0.000188626
-1.62988e-07
0.000188638
-2.26692e-07
0.00018867
-2.70928e-07
0.000188711
-3.02513e-07
0.000188758
-3.25675e-07
0.000188808
-3.42994e-07
0.00018886
-3.56103e-07
0.000188912
-3.66126e-07
0.000188963
-3.73862e-07
0.000189013
-3.79881e-07
0.000189061
-3.84599e-07
0.000189108
-3.88318e-07
0.000189154
-3.91264e-07
0.000189197