/*--------------------------------*- C++ -*----------------------------------*\
| =========                 |                                                 |
| \\      /  F ield         | OpenFOAM: The Open Source CFD Toolbox           |
|  \\    /   O peration     | Version:  2.1.1                                 |
|   \\  /    A nd           | Web:      www.OpenFOAM.org                      |
|    \\/     M anipulation  |                                                 |
\*---------------------------------------------------------------------------*/
FoamFile
{
    version     2.0;
    format      ascii;
    class       volVectorField;
    location    "0.1";
    object      U;
}
// * * * * * * * * * * * * * * * * * * * * * * * * * * * * * * * * * * * * * //

dimensions      [0 1 -1 0 0 0 0];

internalField   nonuniform List<vector> 
6820
(
(8.34337 -0.360078 0)
(8.40112 -0.247162 0)
(8.35616 -0.115304 0)
(8.24792 -0.036573 0)
(8.11956 0.00598607 0)
(7.98624 0.0278404 0)
(7.85425 0.0386028 0)
(7.727 0.0432957 0)
(7.60589 0.0445606 0)
(7.49146 0.0438543 0)
(7.38396 0.0420182 0)
(7.2834 0.0395567 0)
(7.18968 0.0367807 0)
(7.10257 0.0338858 0)
(7.02179 0.0309956 0)
(6.94703 0.0281876 0)
(6.87794 0.0255089 0)
(6.81417 0.0229865 0)
(6.75534 0.0206336 0)
(6.7011 0.0184547 0)
(6.65111 0.0164486 0)
(6.60504 0.0146107 0)
(6.56258 0.0129353 0)
(6.5234 0.0114173 0)
(6.48723 0.0100543 0)
(6.45374 0.00885091 0)
(6.42264 0.00782276 0)
(6.39351 0.00702066 0)
(6.36589 0.00653775 0)
(6.33892 0.006653 0)
(6.31095 0.00818678 0)
(6.27938 0.0117002 0)
(6.23388 0.0306618 0)
(8.32139 0.166247 0)
(8.28709 0.189991 0)
(8.28545 0.132138 0)
(8.31743 0.0958218 0)
(8.36175 0.0749748 0)
(8.40184 0.0623031 0)
(8.43297 0.0548095 0)
(8.45511 0.0502743 0)
(8.46911 0.0473565 0)
(8.47599 0.0453425 0)
(8.47678 0.0438376 0)
(8.47242 0.0426037 0)
(8.46375 0.041502 0)
(8.45149 0.0404552 0)
(8.43628 0.0394228 0)
(8.41867 0.0383857 0)
(8.39916 0.0373376 0)
(8.37815 0.0362793 0)
(8.35601 0.0352152 0)
(8.33303 0.0341515 0)
(8.30949 0.0330953 0)
(8.28558 0.0320541 0)
(8.26151 0.0310366 0)
(8.23741 0.030053 0)
(8.21342 0.0291179 0)
(8.18963 0.028253 0)
(8.16614 0.0274968 0)
(8.143 0.0269193 0)
(8.12046 0.0266447 0)
(8.09825 0.0270089 0)
(8.07866 0.0283604 0)
(8.05887 0.0328239 0)
(8.06091 0.0401098 0)
(8.3225 -0.0608893 0)
(8.31399 -0.0832949 0)
(8.33054 -0.0541179 0)
(8.34438 -0.0203307 0)
(8.35329 0.00236684 0)
(8.36236 0.0164793 0)
(8.37215 0.0257038 0)
(8.38223 0.0319054 0)
(8.39215 0.0361078 0)
(8.4015 0.0389559 0)
(8.41004 0.0408443 0)
(8.41765 0.042017 0)
(8.42426 0.0426475 0)
(8.42985 0.0428668 0)
(8.43445 0.042774 0)
(8.4381 0.0424453 0)
(8.44085 0.0419396 0)
(8.44277 0.0413033 0)
(8.44392 0.0405727 0)
(8.44437 0.0397769 0)
(8.44419 0.038939 0)
(8.44345 0.0380786 0)
(8.4422 0.0372125 0)
(8.4405 0.036357 0)
(8.4384 0.0355309 0)
(8.43597 0.0347561 0)
(8.43324 0.0340714 0)
(8.43025 0.0335141 0)
(8.42714 0.0332185 0)
(8.42392 0.0331325 0)
(8.42115 0.0339407 0)
(8.41866 0.0336567 0)
(8.41785 0.0365155 0)
(8.33365 0.0145576 0)
(8.32978 0.0476795 0)
(8.32741 0.0539346 0)
(8.32877 0.0465121 0)
(8.33469 0.0409992 0)
(8.34227 0.0384787 0)
(8.34982 0.0376503 0)
(8.35711 0.0375859 0)
(8.36417 0.037784 0)
(8.37098 0.038024 0)
(8.37749 0.0382071 0)
(8.38371 0.038292 0)
(8.38959 0.0382687 0)
(8.39514 0.0381404 0)
(8.40034 0.0379151 0)
(8.4052 0.0376034 0)
(8.40971 0.0372174 0)
(8.41389 0.0367689 0)
(8.41777 0.0362696 0)
(8.42134 0.0357304 0)
(8.42464 0.0351617 0)
(8.42768 0.0345736 0)
(8.43049 0.0339768 0)
(8.43309 0.033383 0)
(8.43549 0.0328076 0)
(8.43773 0.0322701 0)
(8.43984 0.0318013 0)
(8.44184 0.0314369 0)
(8.44384 0.0312491 0)
(8.4459 0.0312629 0)
(8.44847 0.0316335 0)
(8.45152 0.0320262 0)
(8.45656 0.0329142 0)
(8.3302 -0.0053173 0)
(8.32723 -0.00752768 0)
(8.3314 -0.00249269 0)
(8.33611 0.00797527 0)
(8.34022 0.0171315 0)
(8.34444 0.0233286 0)
(8.3489 0.0274908 0)
(8.35362 0.0304296 0)
(8.35851 0.0325464 0)
(8.36346 0.0340732 0)
(8.36839 0.0351549 0)
(8.37324 0.0358858 0)
(8.37798 0.0363319 0)
(8.38259 0.0365447 0)
(8.38705 0.0365659 0)
(8.39135 0.0364309 0)
(8.3955 0.0361693 0)
(8.39949 0.0358063 0)
(8.40334 0.035363 0)
(8.40704 0.0348574 0)
(8.4106 0.034305 0)
(8.41404 0.0337196 0)
(8.41737 0.0331144 0)
(8.4206 0.0325024 0)
(8.42373 0.0318986 0)
(8.4268 0.0313198 0)
(8.42983 0.0307899 0)
(8.43286 0.0303284 0)
(8.43595 0.029979 0)
(8.43919 0.0297082 0)
(8.44282 0.0295971 0)
(8.44687 0.0291643 0)
(8.45172 0.028664 0)
(8.33239 0.00227627 0)
(8.33119 0.0132844 0)
(8.33282 0.0203549 0)
(8.33555 0.0237244 0)
(8.33904 0.0258541 0)
(8.34313 0.0276367 0)
(8.34741 0.0292862 0)
(8.35172 0.0307511 0)
(8.35603 0.0319503 0)
(8.36033 0.0328726 0)
(8.36459 0.0335397 0)
(8.36879 0.0339792 0)
(8.37292 0.0342194 0)
(8.37697 0.034289 0)
(8.38094 0.0342142 0)
(8.38481 0.0340186 0)
(8.38858 0.0337225 0)
(8.39227 0.033344 0)
(8.39586 0.0328983 0)
(8.39937 0.032399 0)
(8.40281 0.0318579 0)
(8.40617 0.0312859 0)
(8.40948 0.0306934 0)
(8.41273 0.0300907 0)
(8.41595 0.0294893 0)
(8.41915 0.0289012 0)
(8.42236 0.0283413 0)
(8.42561 0.0278187 0)
(8.42896 0.0273478 0)
(8.43247 0.0268929 0)
(8.43629 0.0264414 0)
(8.44045 0.0257281 0)
(8.44506 0.0247493 0)
(8.33233 0.000862111 0)
(8.33153 0.00575238 0)
(8.33344 0.0107081 0)
(8.33651 0.0154856 0)
(8.33994 0.0198471 0)
(8.34363 0.0233311 0)
(8.34743 0.025984 0)
(8.35125 0.0280007 0)
(8.35512 0.0295178 0)
(8.35898 0.0306372 0)
(8.36283 0.0314358 0)
(8.36663 0.0319691 0)
(8.37038 0.0322799 0)
(8.37407 0.0324041 0)
(8.3777 0.0323714 0)
(8.38126 0.0322076 0)
(8.38476 0.0319344 0)
(8.38819 0.0315705 0)
(8.39156 0.031132 0)
(8.39487 0.0306328 0)
(8.39814 0.0300849 0)
(8.40136 0.029499 0)
(8.40455 0.0288848 0)
(8.40772 0.0282517 0)
(8.41087 0.0276087 0)
(8.41404 0.0269639 0)
(8.41723 0.0263254 0)
(8.42049 0.0256937 0)
(8.42385 0.0250664 0)
(8.42736 0.0244035 0)
(8.4311 0.0236655 0)
(8.43508 0.0226735 0)
(8.43929 0.0213649 0)
(8.33272 0.00169928 0)
(8.33256 0.00725643 0)
(8.33419 0.0125265 0)
(8.33681 0.0167653 0)
(8.33987 0.0201877 0)
(8.34329 0.0228815 0)
(8.34689 0.0250101 0)
(8.35055 0.0267063 0)
(8.35423 0.0280296 0)
(8.35789 0.029026 0)
(8.36153 0.0297411 0)
(8.36512 0.0302149 0)
(8.36866 0.0304817 0)
(8.37214 0.030572 0)
(8.37556 0.0305124 0)
(8.37893 0.0303263 0)
(8.38224 0.0300335 0)
(8.38549 0.0296512 0)
(8.3887 0.0291942 0)
(8.39186 0.0286751 0)
(8.39499 0.0281047 0)
(8.39809 0.0274927 0)
(8.40117 0.0268471 0)
(8.40424 0.0261755 0)
(8.40732 0.0254841 0)
(8.41041 0.0247776 0)
(8.41354 0.024058 0)
(8.41674 0.0233204 0)
(8.42004 0.0225531 0)
(8.42346 0.0217187 0)
(8.42705 0.0207716 0)
(8.43079 0.0195984 0)
(8.43465 0.0181413 0)
(8.33284 0.001776 0)
(8.33294 0.00642301 0)
(8.33445 0.0109116 0)
(8.33689 0.0147749 0)
(8.33978 0.0181129 0)
(8.34301 0.0208768 0)
(8.34641 0.023093 0)
(8.34989 0.0248444 0)
(8.35339 0.0261963 0)
(8.3569 0.0272065 0)
(8.36038 0.027928 0)
(8.36382 0.0284047 0)
(8.36722 0.0286728 0)
(8.37056 0.0287632 0)
(8.37385 0.0287023 0)
(8.37708 0.0285128 0)
(8.38027 0.0282142 0)
(8.3834 0.027823 0)
(8.3865 0.0273534 0)
(8.38955 0.0268173 0)
(8.39258 0.026225 0)
(8.39559 0.0255851 0)
(8.39858 0.0249047 0)
(8.40157 0.0241898 0)
(8.40456 0.0234445 0)
(8.40758 0.0226705 0)
(8.41064 0.0218664 0)
(8.41376 0.021024 0)
(8.41696 0.0201279 0)
(8.42027 0.0191456 0)
(8.42368 0.0180364 0)
(8.42719 0.0167281 0)
(8.43076 0.0151784 0)
(8.33294 0.00181631 0)
(8.33324 0.00609616 0)
(8.33465 0.0102783 0)
(8.33688 0.0139139 0)
(8.33955 0.0170188 0)
(8.34256 0.0195816 0)
(8.34577 0.0216422 0)
(8.34909 0.0232795 0)
(8.35245 0.0245533 0)
(8.35583 0.0255114 0)
(8.35919 0.0261975 0)
(8.36252 0.0266491 0)
(8.36581 0.0268986 0)
(8.36905 0.0269742 0)
(8.37225 0.0269003 0)
(8.37539 0.0266981 0)
(8.37849 0.0263858 0)
(8.38154 0.0259791 0)
(8.38455 0.0254912 0)
(8.38753 0.0249332 0)
(8.39049 0.0243145 0)
(8.39342 0.0236428 0)
(8.39634 0.0229241 0)
(8.39926 0.0221628 0)
(8.40219 0.0213613 0)
(8.40514 0.0205195 0)
(8.40813 0.0196336 0)
(8.41117 0.0186942 0)
(8.41427 0.0176855 0)
(8.41745 0.0165811 0)
(8.4207 0.0153487 0)
(8.424 0.013943 0)
(8.42733 0.0123388 0)
(8.33299 0.00177814 0)
(8.33339 0.00566501 0)
(8.33471 0.00944337 0)
(8.33676 0.0127769 0)
(8.33925 0.0156564 0)
(8.34208 0.0180735 0)
(8.34511 0.0200449 0)
(8.34826 0.0216225 0)
(8.35148 0.0228538 0)
(8.35473 0.0237809 0)
(8.35797 0.0244435 0)
(8.3612 0.0248772 0)
(8.36439 0.0251125 0)
(8.36755 0.0251762 0)
(8.37066 0.0250913 0)
(8.37373 0.0248779 0)
(8.37676 0.0245532 0)
(8.37974 0.0241318 0)
(8.38269 0.0236261 0)
(8.38561 0.0230465 0)
(8.3885 0.0224015 0)
(8.39138 0.0216979 0)
(8.39424 0.0209408 0)
(8.3971 0.0201335 0)
(8.39997 0.0192771 0)
(8.40286 0.0183701 0)
(8.40578 0.0174079 0)
(8.40873 0.0163811 0)
(8.41173 0.0152754 0)
(8.41479 0.0140704 0)
(8.41789 0.0127423 0)
(8.42101 0.0112632 0)
(8.42413 0.00962013 0)
(8.33302 0.00169882 0)
(8.33347 0.00525683 0)
(8.33471 0.00870306 0)
(8.33661 0.0117807 0)
(8.33893 0.0144536 0)
(8.34157 0.0167114 0)
(8.34443 0.0185637 0)
(8.34743 0.0200507 0)
(8.3505 0.0212139 0)
(8.35362 0.0220903 0)
(8.35675 0.0227151 0)
(8.35987 0.0231202 0)
(8.36297 0.0233332 0)
(8.36604 0.0233785 0)
(8.36907 0.0232775 0)
(8.37207 0.0230487 0)
(8.37503 0.022708 0)
(8.37795 0.0222691 0)
(8.38084 0.0217433 0)
(8.3837 0.0211403 0)
(8.38654 0.0204676 0)
(8.38936 0.0197313 0)
(8.39217 0.0189355 0)
(8.39497 0.0180826 0)
(8.39779 0.0171731 0)
(8.40061 0.0162046 0)
(8.40345 0.0151725 0)
(8.40633 0.0140681 0)
(8.40923 0.0128797 0)
(8.41217 0.011592 0)
(8.41513 0.0101884 0)
(8.41809 0.0086522 0)
(8.42105 0.00697873 0)
(8.33303 0.00159539 0)
(8.3335 0.0048491 0)
(8.33467 0.00798161 0)
(8.33643 0.0108019 0)
(8.33859 0.0132651 0)
(8.34106 0.0153602 0)
(8.34376 0.0170918 0)
(8.3466 0.0184882 0)
(8.34954 0.0195829 0)
(8.35253 0.0204072 0)
(8.35554 0.020992 0)
(8.35855 0.0213654 0)
(8.36156 0.0215529 0)
(8.36454 0.0215769 0)
(8.36749 0.0214569 0)
(8.37041 0.0212102 0)
(8.3733 0.0208515 0)
(8.37616 0.0203932 0)
(8.37899 0.019846 0)
(8.38179 0.0192185 0)
(8.38457 0.0185176 0)
(8.38734 0.0177485 0)
(8.39009 0.0169147 0)
(8.39284 0.0160179 0)
(8.39559 0.0150581 0)
(8.39834 0.0140328 0)
(8.40111 0.0129376 0)
(8.4039 0.0117653 0)
(8.4067 0.0105067 0)
(8.40952 0.00915064 0)
(8.41236 0.00768627 0)
(8.41518 0.00610395 0)
(8.41799 0.00440388 0)
(8.33304 0.00147947 0)
(8.33351 0.00444951 0)
(8.33461 0.0072941 0)
(8.33624 0.00987103 0)
(8.33826 0.0121328 0)
(8.34058 0.014066 0)
(8.34312 0.0156716 0)
(8.34581 0.0169696 0)
(8.34861 0.0179871 0)
(8.35147 0.0187511 0)
(8.35437 0.0192883 0)
(8.35727 0.0196237 0)
(8.36018 0.0197801 0)
(8.36307 0.0197779 0)
(8.36594 0.0196348 0)
(8.36878 0.0193667 0)
(8.3716 0.0189869 0)
(8.37439 0.018507 0)
(8.37715 0.0179365 0)
(8.37989 0.0172832 0)
(8.38261 0.0165533 0)
(8.38532 0.0157514 0)
(8.38801 0.0148804 0)
(8.39069 0.0139416 0)
(8.39337 0.0129346 0)
(8.39605 0.0118573 0)
(8.39874 0.0107057 0)
(8.40144 0.00947417 0)
(8.40414 0.00815577 0)
(8.40685 0.00674285 0)
(8.40956 0.00522853 0)
(8.41225 0.00360763 0)
(8.41492 0.00188299 0)
(8.33304 0.0013581 0)
(8.3335 0.00405891 0)
(8.33454 0.00663397 0)
(8.33605 0.00897607 0)
(8.33794 0.0110398 0)
(8.34011 0.0128103 0)
(8.34251 0.0142861 0)
(8.34506 0.0154812 0)
(8.34773 0.0164168 0)
(8.35046 0.0171157 0)
(8.35324 0.0176006 0)
(8.35604 0.0178936 0)
(8.35885 0.0180149 0)
(8.36164 0.0179828 0)
(8.36443 0.0178134 0)
(8.36719 0.017521 0)
(8.36993 0.0171178 0)
(8.37265 0.0166143 0)
(8.37534 0.016019 0)
(8.37802 0.0153392 0)
(8.38067 0.0145801 0)
(8.3833 0.0137459 0)
(8.38593 0.012839 0)
(8.38854 0.0118605 0)
(8.39115 0.0108099 0)
(8.39375 0.00968543 0)
(8.39635 0.00848394 0)
(8.39896 0.00720111 0)
(8.40156 0.00583194 0)
(8.40415 0.00437139 0)
(8.40674 0.00281539 0)
(8.40931 0.00116147 0)
(8.41185 -0.000586264 0)
(8.33304 0.00123545 0)
(8.33348 0.00367881 0)
(8.33445 0.00600008 0)
(8.33587 0.00811674 0)
(8.33763 0.00998749 0)
(8.33967 0.0115964 0)
(8.34194 0.0129403 0)
(8.34436 0.0140284 0)
(8.34689 0.0148773 0)
(8.34951 0.0155059 0)
(8.35217 0.0159336 0)
(8.35486 0.0161795 0)
(8.35757 0.0162614 0)
(8.36027 0.0161956 0)
(8.36297 0.0159966 0)
(8.36565 0.0156772 0)
(8.36831 0.0152483 0)
(8.37095 0.0147195 0)
(8.37357 0.0140984 0)
(8.37617 0.0133913 0)
(8.37875 0.0126032 0)
(8.38132 0.0117375 0)
(8.38387 0.0107965 0)
(8.3864 0.00978087 0)
(8.38893 0.00869048 0)
(8.39145 0.00752384 0)
(8.39396 0.00627856 0)
(8.39646 0.00495153 0)
(8.39896 0.00353935 0)
(8.40144 0.00203884 0)
(8.40391 0.000447851 0)
(8.40636 -0.00123453 0)
(8.40877 -0.00300373 0)
(8.33304 0.00111395 0)
(8.33346 0.00330993 0)
(8.33437 0.0053903 0)
(8.3357 0.0072898 0)
(8.33735 0.00897186 0)
(8.33927 0.0104203 0)
(8.3414 0.0116305 0)
(8.3437 0.0126084 0)
(8.34611 0.0133668 0)
(8.34861 0.0139209 0)
(8.35116 0.0142872 0)
(8.35375 0.014482 0)
(8.35635 0.014521 0)
(8.35896 0.0144183 0)
(8.36157 0.0141869 0)
(8.36416 0.0138382 0)
(8.36674 0.0133819 0)
(8.36931 0.0128264 0)
(8.37185 0.0121788 0)
(8.37437 0.0114445 0)
(8.37688 0.0106279 0)
(8.37936 0.00973209 0)
(8.38183 0.00875897 0)
(8.38429 0.00770939 0)
(8.38673 0.00658318 0)
(8.38916 0.00537933 0)
(8.39157 0.00409615 0)
(8.39398 0.00273151 0)
(8.39636 0.00128323 0)
(8.39873 -0.000250518 0)
(8.40108 -0.00187068 0)
(8.40341 -0.00357727 0)
(8.4057 -0.00536571 0)
(8.33304 0.000994915 0)
(8.33344 0.00295256 0)
(8.33429 0.00480294 0)
(8.33553 0.00649299 0)
(8.33708 0.00799073 0)
(8.33889 0.00928024 0)
(8.3409 0.010356 0)
(8.34308 0.0112214 0)
(8.34538 0.0118859 0)
(8.34776 0.0123619 0)
(8.35021 0.0126631 0)
(8.35269 0.0128034 0)
(8.3552 0.0127961 0)
(8.35771 0.0126537 0)
(8.36023 0.0123874 0)
(8.36274 0.0120074 0)
(8.36524 0.0115222 0)
(8.36772 0.0109393 0)
(8.37018 0.0102648 0)
(8.37262 0.00950363 0)
(8.37505 0.00865959 0)
(8.37745 0.00773539 0)
(8.37984 0.00673277 0)
(8.38221 0.00565252 0)
(8.38456 0.00449469 0)
(8.38689 0.00325863 0)
(8.38921 0.00194324 0)
(8.39151 0.000547184 0)
(8.39379 -0.000930811 0)
(8.39604 -0.00249166 0)
(8.39827 -0.00413554 0)
(8.40047 -0.00586203 0)
(8.40264 -0.00766668 0)
(8.33304 0.000879017 0)
(8.33341 0.00260665 0)
(8.33422 0.0042364 0)
(8.33538 0.00572398 0)
(8.33684 0.00704155 0)
(8.33854 0.00817384 0)
(8.34044 0.00911471 0)
(8.34251 0.00986571 0)
(8.34469 0.0104337 0)
(8.34697 0.0108286 0)
(8.34931 0.0110615 0)
(8.35169 0.0111441 0)
(8.3541 0.0110878 0)
(8.35653 0.0109032 0)
(8.35895 0.0106001 0)
(8.36138 0.0101873 0)
(8.36379 0.00967219 0)
(8.36619 0.00906138 0)
(8.36857 0.00836018 0)
(8.37093 0.00757289 0)
(8.37327 0.00670283 0)
(8.37559 0.0057524 0)
(8.37789 0.00472315 0)
(8.38017 0.00361589 0)
(8.38242 0.0024308 0)
(8.38466 0.00116759 0)
(8.38687 -0.000174383 0)
(8.38906 -0.00159585 0)
(8.39123 -0.00309744 0)
(8.39337 -0.00467946 0)
(8.39548 -0.00634163 0)
(8.39756 -0.00808331 0)
(8.3996 -0.00990029 0)
(8.33303 0.000766513 0)
(8.33339 0.00227189 0)
(8.33415 0.00368919 0)
(8.33524 0.00498065 0)
(8.33661 0.00612205 0)
(8.33821 0.00709904 0)
(8.34002 0.00790516 0)
(8.34198 0.00854058 0)
(8.34406 0.00901014 0)
(8.34623 0.00932144 0)
(8.34847 0.00948352 0)
(8.35076 0.00950599 0)
(8.35307 0.00939837 0)
(8.3554 0.00916972 0)
(8.35774 0.00882831 0)
(8.36008 0.0083816 0)
(8.3624 0.00783613 0)
(8.36472 0.00719743 0)
(8.36701 0.00647013 0)
(8.36929 0.00565793 0)
(8.37154 0.00476371 0)
(8.37377 0.00378957 0)
(8.37598 0.00273691 0)
(8.37817 0.00160653 0)
(8.38033 0.000398729 0)
(8.38247 -0.000886524 0)
(8.38458 -0.00224949 0)
(8.38666 -0.00369048 0)
(8.38871 -0.00520967 0)
(8.39073 -0.00680697 0)
(8.39272 -0.00848185 0)
(8.39467 -0.0102336 0)
(8.39659 -0.0120582 0)
(8.33303 0.000657432 0)
(8.33337 0.00194779 0)
(8.33408 0.00315985 0)
(8.33511 0.00426091 0)
(8.3364 0.00522983 0)
(8.33792 0.00605334 0)
(8.33963 0.00672492 0)
(8.34149 0.00724375 0)
(8.34347 0.00761308 0)
(8.34554 0.00783863 0)
(8.34769 0.0079276 0)
(8.34988 0.00788774 0)
(8.3521 0.00772688 0)
(8.35435 0.00745255 0)
(8.35659 0.00707161 0)
(8.35884 0.00659037 0)
(8.36108 0.00601435 0)
(8.36331 0.0053482 0)
(8.36552 0.00459584 0)
(8.36771 0.00376039 0)
(8.36987 0.00284432 0)
(8.37202 0.00184943 0)
(8.37413 0.000776961 0)
(8.37622 -0.000372314 0)
(8.37828 -0.001598 0)
(8.38032 -0.00289995 0)
(8.38232 -0.00427817 0)
(8.38429 -0.00573265 0)
(8.38623 -0.00726329 0)
(8.38813 -0.00886974 0)
(8.39 -0.0105513 0)
(8.39183 -0.0123073 0)
(8.39362 -0.014134 0)
(8.33303 0.000551675 0)
(8.33334 0.00163377 0)
(8.33402 0.00264708 0)
(8.33499 0.00356302 0)
(8.33621 0.00436315 0)
(8.33764 0.00503539 0)
(8.33926 0.00557339 0)
(8.34104 0.00597562 0)
(8.34293 0.00624405 0)
(8.34491 0.00638284 0)
(8.34696 0.00639751 0)
(8.34906 0.00629419 0)
(8.35119 0.00607909 0)
(8.35335 0.00575838 0)
(8.35551 0.00533749 0)
(8.35767 0.00482169 0)
(8.35983 0.00421553 0)
(8.36197 0.00352284 0)
(8.36409 0.00274687 0)
(8.36619 0.00189017 0)
(8.36827 0.000954823 0)
(8.37032 -5.76485e-05 0)
(8.37234 -0.00114616 0)
(8.37433 -0.00231 0)
(8.37629 -0.00354872 0)
(8.37822 -0.00486207 0)
(8.38012 -0.00624985 0)
(8.38198 -0.00771188 0)
(8.3838 -0.00924784 0)
(8.38558 -0.0108573 0)
(8.38733 -0.0125394 0)
(8.38903 -0.0142935 0)
(8.39069 -0.0161162 0)
(8.33303 0.000449067 0)
(8.33333 0.0013291 0)
(8.33396 0.0021493 0)
(8.33488 0.00288443 0)
(8.33603 0.00351836 0)
(8.33739 0.00404028 0)
(8.33893 0.00444434 0)
(8.34062 0.00472872 0)
(8.34242 0.00489444 0)
(8.34432 0.00494441 0)
(8.34628 0.0048828 0)
(8.3483 0.00471428 0)
(8.35035 0.00444362 0)
(8.35241 0.00407565 0)
(8.35449 0.00361439 0)
(8.35657 0.00306438 0)
(8.35864 0.00242907 0)
(8.36069 0.00171143 0)
(8.36273 0.000913978 0)
(8.36474 3.88615e-05 0)
(8.36673 -0.000912332 0)
(8.36868 -0.00193837 0)
(8.37061 -0.00303835 0)
(8.3725 -0.00421163 0)
(8.37436 -0.00545779 0)
(8.37619 -0.00677649 0)
(8.37797 -0.00816746 0)
(8.37972 -0.00963038 0)
(8.38142 -0.0111648 0)
(8.38309 -0.0127703 0)
(8.38471 -0.0144459 0)
(8.38628 -0.0161911 0)
(8.38782 -0.0180025 0)
(8.33303 0.00034943 0)
(8.33331 0.00103336 0)
(8.33391 0.00166612 0)
(8.33477 0.0022256 0)
(8.33587 0.00269788 0)
(8.33716 0.00307335 0)
(8.33863 0.00334661 0)
(8.34024 0.00351553 0)
(8.34196 0.00358034 0)
(8.34378 0.00354286 0)
(8.34566 0.00340603 0)
(8.34759 0.00317301 0)
(8.34956 0.00284731 0)
(8.35154 0.00243337 0)
(8.35354 0.00193211 0)
(8.35553 0.00134827 0)
(8.35752 0.000684657 0)
(8.35949 -5.66689e-05 0)
(8.36144 -0.000873802 0)
(8.36336 -0.00176511 0)
(8.36526 -0.00272941 0)
(8.36712 -0.00376574 0)
(8.36895 -0.00487339 0)
(8.37074 -0.00605182 0)
(8.3725 -0.00730064 0)
(8.37422 -0.0086195 0)
(8.37589 -0.0100081 0)
(8.37753 -0.011466 0)
(8.37911 -0.0129928 0)
(8.38066 -0.0145879 0)
(8.38216 -0.0162505 0)
(8.3836 -0.01798 0)
(8.38501 -0.0197733 0)
(8.33303 0.000252472 0)
(8.33329 0.000744996 0)
(8.33386 0.00119328 0)
(8.33468 0.00157745 0)
(8.33572 0.00188562 0)
(8.33695 0.00211037 0)
(8.33835 0.00224797 0)
(8.33989 0.00229646 0)
(8.34154 0.00225567 0)
(8.34328 0.00212636 0)
(8.34509 0.00191123 0)
(8.34694 0.00161192 0)
(8.34883 0.00123043 0)
(8.35074 0.000768056 0)
(8.35265 0.000229971 0)
(8.35457 -0.000384093 0)
(8.35647 -0.00107252 0)
(8.35835 -0.00183347 0)
(8.36022 -0.00266561 0)
(8.36205 -0.00356793 0)
(8.36386 -0.00453959 0)
(8.36563 -0.00557995 0)
(8.36736 -0.00668854 0)
(8.36906 -0.00786498 0)
(8.37071 -0.00910894 0)
(8.37232 -0.0104201 0)
(8.37389 -0.0117982 0)
(8.37541 -0.0132429 0)
(8.37688 -0.0147535 0)
(8.3783 -0.0163296 0)
(8.37968 -0.0179704 0)
(8.381 -0.0196753 0)
(8.38227 -0.0214412 0)
(8.33302 0.0001584 0)
(8.33327 0.00046669 0)
(8.33381 0.000739841 0)
(8.33459 0.000961103 0)
(8.33558 0.00111948 0)
(8.33676 0.00120667 0)
(8.3381 0.00122014 0)
(8.33957 0.00115825 0)
(8.34116 0.00102025 0)
(8.34283 0.000806621 0)
(8.34457 0.00051697 0)
(8.34635 0.000152977 0)
(8.34817 -0.000283576 0)
(8.35 -0.000792462 0)
(8.35184 -0.00136939 0)
(8.35368 -0.0020155 0)
(8.3555 -0.00272991 0)
(8.3573 -0.00351133 0)
(8.35908 -0.00435899 0)
(8.36083 -0.00527233 0)
(8.36255 -0.00625085 0)
(8.36423 -0.00729419 0)
(8.36586 -0.00840208 0)
(8.36746 -0.00957429 0)
(8.36901 -0.0108106 0)
(8.37052 -0.0121108 0)
(8.37197 -0.0134745 0)
(8.37338 -0.0149014 0)
(8.37474 -0.0163911 0)
(8.37604 -0.017943 0)
(8.37729 -0.0195564 0)
(8.37849 -0.0212307 0)
(8.37963 -0.022963 0)
(8.33302 6.55511e-05 0)
(8.33326 0.000186822 0)
(8.33378 0.000272344 0)
(8.33452 0.000306732 0)
(8.33547 0.000286729 0)
(8.3366 0.000212412 0)
(8.33788 8.04588e-05 0)
(8.3393 -0.000109828 0)
(8.34082 -0.000358531 0)
(8.34243 -0.000665716 0)
(8.3441 -0.00103308 0)
(8.34582 -0.00146036 0)
(8.34757 -0.00194752 0)
(8.34933 -0.00249406 0)
(8.3511 -0.00310254 0)
(8.35286 -0.00377152 0)
(8.3546 -0.0045009 0)
(8.35633 -0.00529093 0)
(8.35802 -0.00614169 0)
(8.35969 -0.00705323 0)
(8.36131 -0.00802557 0)
(8.3629 -0.00905873 0)
(8.36445 -0.0101527 0)
(8.36595 -0.0113075 0)
(8.3674 -0.012523 0)
(8.3688 -0.013799 0)
(8.37015 -0.0151354 0)
(8.37144 -0.0165318 0)
(8.37269 -0.0179878 0)
(8.37387 -0.0195028 0)
(8.375 -0.0210761 0)
(8.37608 -0.0227072 0)
(8.37709 -0.0243933 0)
(8.33302 -2.06989e-05 0)
(8.33324 -5.95691e-05 0)
(8.33371 -0.000117686 0)
(8.33441 -0.000212504 0)
(8.33532 -0.00035065 0)
(8.3364 -0.000534976 0)
(8.33765 -0.000770346 0)
(8.33902 -0.00105786 0)
(8.3405 -0.00139728 0)
(8.34206 -0.00178873 0)
(8.34368 -0.00223132 0)
(8.34535 -0.00272551 0)
(8.34704 -0.0032719 0)
(8.34874 -0.00387074 0)
(8.35044 -0.0045227 0)
(8.35213 -0.00522774 0)
(8.35381 -0.00598635 0)
(8.35546 -0.00679906 0)
(8.35708 -0.00766624 0)
(8.35866 -0.00858826 0)
(8.3602 -0.00956545 0)
(8.3617 -0.0105981 0)
(8.36315 -0.0116865 0)
(8.36456 -0.0128308 0)
(8.36591 -0.0140311 0)
(8.36721 -0.0152873 0)
(8.36845 -0.0165995 0)
(8.36964 -0.0179674 0)
(8.37077 -0.0193906 0)
(8.37184 -0.0208687 0)
(8.37285 -0.0224011 0)
(8.3738 -0.0239873 0)
(8.37469 -0.0256248 0)
(8.33303 -0.000117332 0)
(8.33325 -0.000373661 0)
(8.33372 -0.000674221 0)
(8.33441 -0.00101901 0)
(8.33528 -0.00139635 0)
(8.33632 -0.00179754 0)
(8.33751 -0.00221631 0)
(8.33884 -0.00265192 0)
(8.34026 -0.00310683 0)
(8.34176 -0.00358493 0)
(8.34332 -0.00409045 0)
(8.34493 -0.00462783 0)
(8.34655 -0.00520103 0)
(8.34819 -0.00581333 0)
(8.34983 -0.00646781 0)
(8.35145 -0.00716681 0)
(8.35306 -0.0079123 0)
(8.35464 -0.00870592 0)
(8.35618 -0.00954899 0)
(8.35768 -0.0104426 0)
(8.35915 -0.0113875 0)
(8.36056 -0.0123843 0)
(8.36192 -0.0134337 0)
(8.36324 -0.0145358 0)
(8.36449 -0.0156909 0)
(8.36569 -0.0168991 0)
(8.36684 -0.0181601 0)
(8.36792 -0.0194739 0)
(8.36894 -0.02084 0)
(8.3699 -0.0222579 0)
(8.37079 -0.0237271 0)
(8.37163 -0.025247 0)
(8.3724 -0.0268151 0)
(8.333 -0.000165061 0)
(8.33315 -0.000456735 0)
(8.33354 -0.000750875 0)
(8.33416 -0.00108535 0)
(8.335 -0.00147344 0)
(8.33604 -0.00191442 0)
(8.33724 -0.00240113 0)
(8.33856 -0.00292615 0)
(8.33999 -0.00348389 0)
(8.34148 -0.00407097 0)
(8.34303 -0.00468582 0)
(8.34461 -0.00532842 0)
(8.34621 -0.00599974 0)
(8.3478 -0.00670128 0)
(8.34939 -0.00743495 0)
(8.35096 -0.00820263 0)
(8.3525 -0.00900622 0)
(8.35401 -0.00984754 0)
(8.35549 -0.0107283 0)
(8.35691 -0.0116499 0)
(8.3583 -0.0126137 0)
(8.35963 -0.013621 0)
(8.3609 -0.0146725 0)
(8.36212 -0.0157691 0)
(8.36328 -0.0169113 0)
(8.36438 -0.0180997 0)
(8.36542 -0.0193344 0)
(8.3664 -0.0206155 0)
(8.36731 -0.021943 0)
(8.36816 -0.0233166 0)
(8.36894 -0.024736 0)
(8.36966 -0.0262008 0)
(8.37031 -0.0277088 0)
(8.33305 -0.000350786 0)
(8.33333 -0.00112739 0)
(8.33378 -0.00198318 0)
(8.33439 -0.0028522 0)
(8.33517 -0.00367845 0)
(8.33612 -0.00444171 0)
(8.33722 -0.00514384 0)
(8.33845 -0.00579595 0)
(8.3398 -0.00641219 0)
(8.34122 -0.00700682 0)
(8.3427 -0.00759288 0)
(8.34422 -0.00818169 0)
(8.34576 -0.00878272 0)
(8.3473 -0.00940363 0)
(8.34883 -0.0100506 0)
(8.35035 -0.0107283 0)
(8.35183 -0.0114408 0)
(8.35329 -0.0121908 0)
(8.3547 -0.0129807 0)
(8.35606 -0.0138122 0)
(8.35737 -0.0146868 0)
(8.35863 -0.0156053 0)
(8.35983 -0.0165686 0)
(8.36098 -0.017577 0)
(8.36205 -0.0186308 0)
(8.36307 -0.0197303 0)
(8.36402 -0.0208752 0)
(8.3649 -0.0220654 0)
(8.36572 -0.0233006 0)
(8.36647 -0.0245804 0)
(8.36715 -0.025904 0)
(8.36775 -0.027271 0)
(8.3683 -0.0286792 0)
(8.33294 -0.000120253 0)
(8.33285 -0.000266953 0)
(8.33306 -0.00047398 0)
(8.33363 -0.000871326 0)
(8.33449 -0.00146292 0)
(8.33559 -0.00219389 0)
(8.33684 -0.00300746 0)
(8.33821 -0.00386297 0)
(8.33966 -0.0047352 0)
(8.34116 -0.00560967 0)
(8.34269 -0.00647936 0)
(8.34422 -0.00734232 0)
(8.34576 -0.00819981 0)
(8.34728 -0.00905488 0)
(8.34878 -0.0099115 0)
(8.35024 -0.010774 0)
(8.35167 -0.0116466 0)
(8.35306 -0.0125335 0)
(8.35439 -0.0134382 0)
(8.35568 -0.0143642 0)
(8.35691 -0.0153143 0)
(8.35808 -0.016291 0)
(8.35919 -0.0172965 0)
(8.36024 -0.0183325 0)
(8.36122 -0.0194007 0)
(8.36213 -0.020502 0)
(8.36298 -0.0216374 0)
(8.36376 -0.0228076 0)
(8.36447 -0.024013 0)
(8.36511 -0.0252538 0)
(8.36568 -0.0265299 0)
(8.36617 -0.0278415 0)
(8.3666 -0.0291867 0)
(8.33317 -0.000810023 0)
(8.33366 -0.00276889 0)
(8.33405 -0.00478284 0)
(8.33442 -0.00652127 0)
(8.33496 -0.00790847 0)
(8.33572 -0.00899829 0)
(8.33669 -0.00986471 0)
(8.33784 -0.0105715 0)
(8.33913 -0.0111705 0)
(8.34051 -0.011702 0)
(8.34195 -0.012197 0)
(8.34344 -0.0126781 0)
(8.34493 -0.013162 0)
(8.34643 -0.0136606 0)
(8.3479 -0.0141823 0)
(8.34935 -0.014733 0)
(8.35076 -0.0153169 0)
(8.35213 -0.0159367 0)
(8.35344 -0.0165945 0)
(8.3547 -0.0172914 0)
(8.35589 -0.0180282 0)
(8.35703 -0.0188054 0)
(8.35809 -0.019623 0)
(8.35909 -0.0204812 0)
(8.36002 -0.0213797 0)
(8.36087 -0.0223182 0)
(8.36166 -0.0232964 0)
(8.36237 -0.0243138 0)
(8.36301 -0.0253698 0)
(8.36357 -0.0264638 0)
(8.36406 -0.0275951 0)
(8.36447 -0.0287632 0)
(8.36481 -0.0299659 0)
(8.33263 0.000547333 0)
(8.33175 0.00190303 0)
(8.33173 0.0027015 0)
(8.33253 0.00252826 0)
(8.33376 0.00161039 0)
(8.33517 0.000299706 0)
(8.33667 -0.00117376 0)
(8.33821 -0.00268738 0)
(8.33977 -0.00417533 0)
(8.34132 -0.00560257 0)
(8.34285 -0.00695448 0)
(8.34436 -0.00822933 0)
(8.34584 -0.00943235 0)
(8.34728 -0.0105722 0)
(8.34868 -0.0116589 0)
(8.35004 -0.0127027 0)
(8.35134 -0.0137133 0)
(8.3526 -0.0146996 0)
(8.3538 -0.0156696 0)
(8.35494 -0.0166303 0)
(8.35601 -0.0175878 0)
(8.35703 -0.0185471 0)
(8.35798 -0.0195128 0)
(8.35886 -0.0204886 0)
(8.35968 -0.0214776 0)
(8.36042 -0.0224823 0)
(8.36109 -0.023505 0)
(8.3617 -0.0245472 0)
(8.36222 -0.0256103 0)
(8.36268 -0.0266953 0)
(8.36306 -0.0278027 0)
(8.36336 -0.0289332 0)
(8.3636 -0.0300858 0)
(8.33357 -0.00199197 0)
(8.33464 -0.00699553 0)
(8.33435 -0.0118496 0)
(8.33364 -0.0150644 0)
(8.33339 -0.0168919 0)
(8.33376 -0.0179159 0)
(8.33458 -0.0184559 0)
(8.33571 -0.0187061 0)
(8.33704 -0.0188014 0)
(8.33851 -0.0188292 0)
(8.34004 -0.0188442 0)
(8.34162 -0.0188795 0)
(8.34319 -0.0189546 0)
(8.34475 -0.0190799 0)
(8.34628 -0.0192604 0)
(8.34775 -0.019498 0)
(8.34918 -0.0197921 0)
(8.35054 -0.0201415 0)
(8.35184 -0.0205442 0)
(8.35306 -0.0209978 0)
(8.35422 -0.0215003 0)
(8.3553 -0.0220493 0)
(8.35631 -0.0226427 0)
(8.35724 -0.0232788 0)
(8.35809 -0.0239557 0)
(8.35886 -0.0246718 0)
(8.35956 -0.0254255 0)
(8.36017 -0.0262156 0)
(8.36071 -0.0270407 0)
(8.36117 -0.0278996 0)
(8.36155 -0.0287911 0)
(8.36185 -0.0297145 0)
(8.36208 -0.0306677 0)
(8.33162 0.00367264 0)
(8.32827 0.0101825 0)
(8.32843 0.01331 0)
(8.33096 0.013218 0)
(8.33349 0.0111021 0)
(8.33562 0.0082049 0)
(8.33752 0.00515227 0)
(8.33925 0.00218311 0)
(8.34085 -0.000590998 0)
(8.34235 -0.00312231 0)
(8.34378 -0.00540587 0)
(8.34515 -0.00745803 0)
(8.34648 -0.00930344 0)
(8.34777 -0.0109692 0)
(8.34903 -0.0124821 0)
(8.35025 -0.0138666 0)
(8.35144 -0.0151447 0)
(8.35258 -0.0163356 0)
(8.35369 -0.0174557 0)
(8.35474 -0.0185191 0)
(8.35575 -0.0195376 0)
(8.3567 -0.0205214 0)
(8.3576 -0.0214789 0)
(8.35844 -0.0224172 0)
(8.35922 -0.0233423 0)
(8.35993 -0.0242592 0)
(8.36057 -0.025172 0)
(8.36115 -0.0260842 0)
(8.36165 -0.0269986 0)
(8.36209 -0.0279175 0)
(8.36245 -0.0288426 0)
(8.36274 -0.0297752 0)
(8.36295 -0.0307156 0)
(8.33429 -0.00645159 0)
(8.3346 -0.0207416 0)
(8.33067 -0.0300122 0)
(8.32662 -0.0340614 0)
(8.32468 -0.0349857 0)
(8.32474 -0.0344712 0)
(8.32587 -0.0333317 0)
(8.32754 -0.0319607 0)
(8.32952 -0.0305813 0)
(8.3317 -0.0293111 0)
(8.33396 -0.028202 0)
(8.33625 -0.0272708 0)
(8.33852 -0.0265164 0)
(8.34076 -0.0259285 0)
(8.34294 -0.0254928 0)
(8.34506 -0.0251937 0)
(8.3471 -0.0250162 0)
(8.34905 -0.0249462 0)
(8.35093 -0.0249713 0)
(8.35272 -0.0250803 0)
(8.35441 -0.0252638 0)
(8.35602 -0.0255134 0)
(8.35753 -0.0258222 0)
(8.35895 -0.026184 0)
(8.36028 -0.0265938 0)
(8.36151 -0.0270472 0)
(8.36264 -0.0275405 0)
(8.36368 -0.0280704 0)
(8.36462 -0.0286341 0)
(8.36547 -0.0292294 0)
(8.36623 -0.0298541 0)
(8.3669 -0.0305069 0)
(8.36748 -0.0311851 0)
(8.32884 0.0225867 0)
(8.32235 0.0427463 0)
(8.32666 0.0439664 0)
(8.33327 0.0379995 0)
(8.33773 0.0306497 0)
(8.3405 0.0234825 0)
(8.34274 0.0168186 0)
(8.34486 0.0108403 0)
(8.34698 0.00560382 0)
(8.34916 0.00106129 0)
(8.35144 -0.0028671 0)
(8.3538 -0.00626317 0)
(8.35623 -0.0092047 0)
(8.35871 -0.0117623 0)
(8.36121 -0.0139975 0)
(8.36371 -0.0159629 0)
(8.3662 -0.0177029 0)
(8.36864 -0.0192548 0)
(8.37104 -0.0206498 0)
(8.37337 -0.0219142 0)
(8.37562 -0.0230697 0)
(8.3778 -0.0241348 0)
(8.37988 -0.0251246 0)
(8.38187 -0.026052 0)
(8.38375 -0.0269279 0)
(8.38553 -0.0277613 0)
(8.38721 -0.0285599 0)
(8.38878 -0.0293302 0)
(8.39023 -0.0300777 0)
(8.39158 -0.0308069 0)
(8.39282 -0.031522 0)
(8.39394 -0.032226 0)
(8.39496 -0.0329226 0)
(8.32436 -0.0380382 0)
(8.29385 -0.0683472 0)
(8.27211 -0.0717476 0)
(8.26664 -0.0686796 0)
(8.27353 -0.0643697 0)
(8.28614 -0.0595696 0)
(8.30086 -0.0549102 0)
(8.31614 -0.0507578 0)
(8.33113 -0.0471743 0)
(8.34536 -0.0441349 0)
(8.35864 -0.0415953 0)
(8.3709 -0.0394966 0)
(8.38216 -0.037777 0)
(8.39245 -0.0363797 0)
(8.40184 -0.0352548 0)
(8.41039 -0.0343591 0)
(8.41816 -0.0336562 0)
(8.42522 -0.0331157 0)
(8.43162 -0.0327122 0)
(8.43742 -0.0324247 0)
(8.44266 -0.0322357 0)
(8.44739 -0.0321307 0)
(8.45164 -0.0320981 0)
(8.45546 -0.0321278 0)
(8.45888 -0.0322115 0)
(8.46192 -0.0323425 0)
(8.4646 -0.032515 0)
(8.46697 -0.032724 0)
(8.46902 -0.0329656 0)
(8.4708 -0.0332361 0)
(8.47231 -0.0335323 0)
(8.47357 -0.0338516 0)
(8.47462 -0.0341904 0)