/*--------------------------------*- C++ -*----------------------------------*\
| =========                 |                                                 |
| \\      /  F ield         | OpenFOAM: The Open Source CFD Toolbox           |
|  \\    /   O peration     | Version:  2.1.1                                 |
|   \\  /    A nd           | Web:      www.OpenFOAM.org                      |
|    \\/     M anipulation  |                                                 |
\*---------------------------------------------------------------------------*/
FoamFile
{
    version     2.0;
    format      ascii;
    class       volScalarField;
    location    "0.065";
    object      epsilon;
}
// * * * * * * * * * * * * * * * * * * * * * * * * * * * * * * * * * * * * * //

dimensions      [0 2 -3 0 0 0 0];

internalField   nonuniform List<scalar> 
6820
(
151.448
203.151
260.735
321.76
383.625
443.716
499.744
549.999
593.421
629.568
658.505
680.67
696.738
707.503
713.792
716.4
716.053
713.393
708.967
703.232
696.561
689.253
681.544
673.616
665.606
657.616
649.71
641.948
634.27
627.062
618.46
617.238
581.141
11.7448
21.4181
29.9463
38.63
47.5907
56.575
65.3464
73.7036
81.4851
88.5823
94.9408
100.554
105.453
109.694
113.35
116.5
119.223
121.592
123.675
125.533
127.217
128.771
130.234
131.64
133.018
134.397
135.805
137.277
138.851
140.616
142.607
145.316
148.447
5.83781
7.51668
9.20629
10.8087
12.319
13.7463
15.0871
16.3377
17.4965
18.5634
19.5403
20.4306
21.2399
21.9747
22.6422
23.2504
23.8068
24.3191
24.7944
25.2393
25.6598
26.0613
26.4487
26.8264
27.1983
27.5682
27.9397
28.3164
28.7024
29.1029
29.5273
29.968
30.5202
5.2423
5.56004
6.0044
6.49336
6.98546
7.46149
7.91233
8.33369
8.72387
9.08271
9.41096
9.70995
9.98137
10.2271
10.4492
10.6497
10.8305
10.9936
11.1408
11.2739
11.3944
11.5039
11.6037
11.6949
11.7788
11.8561
11.9278
11.9942
12.0559
12.1131
12.165
12.2117
12.2504
5.17349
5.18677
5.2682
5.39774
5.55634
5.72962
5.9077
6.08414
6.25493
6.41762
6.57082
6.71383
6.84642
6.96865
7.08078
7.18324
7.27651
7.36116
7.43775
7.50688
7.56913
7.62507
7.67526
7.72021
7.76042
7.79636
7.82843
7.85703
7.88249
7.90509
7.92498
7.94238
7.95698
5.16878
5.12132
5.09603
5.09482
5.11536
5.15308
5.203
5.26077
5.32295
5.38697
5.45097
5.5136
5.57397
5.63145
5.68566
5.73638
5.78352
5.82706
5.86708
5.90368
5.93701
5.96724
5.99455
6.01914
6.04122
6.061
6.07867
6.09445
6.10855
6.12117
6.13251
6.14275
6.15207
5.16887
5.11169
5.06115
5.01963
4.9884
4.96754
4.95615
4.95279
4.95588
4.96389
4.97549
4.98955
5.00517
5.02164
5.03838
5.05498
5.07112
5.08656
5.10113
5.11473
5.1273
5.1388
5.14923
5.15861
5.16699
5.17442
5.18095
5.18668
5.19169
5.19608
5.19995
5.20339
5.20653
5.16902
5.11063
5.05515
5.00339
4.95619
4.91413
4.87745
4.84609
4.8197
4.79779
4.77978
4.7651
4.75319
4.74353
4.7357
4.7293
4.72401
4.71957
4.71574
4.71235
4.70925
4.70633
4.70351
4.70072
4.6979
4.69505
4.69213
4.68915
4.68613
4.68309
4.68005
4.67705
4.67414
5.16904
5.11054
5.05431
5.00049
4.94927
4.90089
4.85557
4.81343
4.77451
4.73876
4.70604
4.67616
4.64889
4.62398
4.60119
4.58029
4.56105
4.54326
4.52675
4.51136
4.49694
4.48336
4.47053
4.45835
4.44674
4.43565
4.42503
4.41484
4.40505
4.39564
4.3866
4.37795
4.36966
5.16904
5.11054
5.05421
5.00002
4.94795
4.89802
4.85025
4.80468
4.76133
4.72022
4.68131
4.64456
4.6099
4.57723
4.54644
4.51743
4.49007
4.46425
4.43984
4.41674
4.39485
4.37405
4.35428
4.33545
4.31748
4.30031
4.28389
4.26818
4.25312
4.23869
4.22486
4.21161
4.19893
5.16904
5.11053
5.05418
4.99994
4.94772
4.89746
4.84911
4.80262
4.75795
4.71508
4.67397
4.6346
4.59691
4.56087
4.52642
4.4935
4.46205
4.43199
4.40327
4.37581
4.34956
4.32443
4.30037
4.27732
4.25522
4.23403
4.21369
4.19416
4.1754
4.15739
4.14008
4.12347
4.10752
5.16904
5.11053
5.05417
4.99991
4.94767
4.89734
4.84887
4.80216
4.75715
4.71379
4.67202
4.63179
4.59305
4.55576
4.51987
4.48533
4.4521
4.42012
4.38937
4.35977
4.33129
4.30389
4.27751
4.25212
4.22767
4.20411
4.18143
4.15957
4.13851
4.11822
4.09867
4.07985
4.06172
5.16904
5.11052
5.05416
4.9999
4.94764
4.8973
4.84879
4.80204
4.75695
4.71347
4.67152
4.63104
4.59199
4.55429
4.51791
4.4828
4.4489
4.41617
4.38458
4.35408
4.32463
4.29619
4.26872
4.24219
4.21656
4.1918
4.16789
4.14478
4.12246
4.1009
4.08007
4.05996
4.04055
5.16904
5.11052
5.05415
4.99988
4.94762
4.89727
4.84875
4.80198
4.75687
4.71336
4.67136
4.63083
4.59168
4.55387
4.51734
4.48204
4.44793
4.41495
4.38306
4.35222
4.32239
4.29354
4.26563
4.23862
4.21248
4.18719
4.16271
4.13902
4.11609
4.09391
4.07244
4.05168
4.0316
5.16903
5.11051
5.05414
4.99987
4.9476
4.89725
4.84872
4.80194
4.75682
4.7133
4.67129
4.63073
4.59156
4.55371
4.51714
4.48179
4.44761
4.41455
4.38257
4.35162
4.32167
4.29267
4.2646
4.23742
4.21109
4.18559
4.16089
4.13696
4.11378
4.09133
4.06959
4.04853
4.02815
5.16903
5.11051
5.05414
4.99986
4.94759
4.89723
4.8487
4.80191
4.75678
4.71325
4.67123
4.63066
4.59148
4.55362
4.51704
4.48167
4.44747
4.41439
4.38238
4.35139
4.3214
4.29237
4.26424
4.237
4.21061
4.18504
4.16026
4.13625
4.11299
4.09044
4.06859
4.04742
4.02692
5.16903
5.11051
5.05413
4.99985
4.94757
4.89721
4.84867
4.80188
4.75674
4.7132
4.67118
4.6306
4.59141
4.55355
4.51696
4.48158
4.44737
4.41428
4.38226
4.35127
4.32127
4.29222
4.26408
4.23683
4.21042
4.18483
4.16003
4.136
4.1127
4.09012
4.06824
4.04704
4.02649
5.16903
5.1105
5.05413
4.99984
4.94756
4.89719
4.84865
4.80185
4.75671
4.71316
4.67113
4.63055
4.59135
4.55349
4.51689
4.48151
4.44729
4.4142
4.38217
4.35118
4.32117
4.29212
4.26398
4.23672
4.2103
4.18471
4.15991
4.13587
4.11257
4.08998
4.06809
4.04687
4.02631
5.16903
5.1105
5.05412
4.99983
4.94755
4.89718
4.84863
4.80182
4.75668
4.71313
4.67109
4.6305
4.5913
4.55343
4.51683
4.48144
4.44722
4.41412
4.38209
4.35109
4.32108
4.29203
4.26389
4.23662
4.21021
4.18462
4.15982
4.13578
4.11247
4.08989
4.06799
4.04677
4.02619
5.16903
5.1105
5.05412
4.99983
4.94754
4.89716
4.84861
4.8018
4.75666
4.7131
4.67105
4.63046
4.59126
4.55338
4.51677
4.48138
4.44715
4.41405
4.38202
4.35102
4.32101
4.29195
4.2638
4.23654
4.21013
4.18453
4.15973
4.13569
4.11238
4.08979
4.0679
4.04667
4.02608
5.16903
5.1105
5.05411
4.99982
4.94753
4.89715
4.8486
4.80178
4.75663
4.71307
4.67102
4.63042
4.59121
4.55333
4.51672
4.48132
4.44709
4.41398
4.38195
4.35094
4.32093
4.29187
4.26372
4.23646
4.21005
4.18445
4.15964
4.1356
4.11229
4.0897
4.06779
4.04656
4.02597
5.16903
5.1105
5.05411
4.99982
4.94752
4.89714
4.84859
4.80177
4.75661
4.71304
4.67099
4.63039
4.59117
4.55329
4.51667
4.48127
4.44704
4.41393
4.38189
4.35088
4.32086
4.2918
4.26365
4.23638
4.20996
4.18437
4.15956
4.13551
4.1122
4.0896
4.06769
4.04644
4.02584
5.16903
5.11049
5.05411
4.99981
4.94752
4.89713
4.84857
4.80175
4.75659
4.71302
4.67097
4.63036
4.59114
4.55325
4.51663
4.48122
4.44699
4.41387
4.38183
4.35082
4.3208
4.29173
4.26358
4.2363
4.20988
4.18428
4.15947
4.13541
4.1121
4.08949
4.06757
4.04631
4.0257
5.16903
5.11049
5.05411
4.99981
4.94751
4.89713
4.84856
4.80174
4.75658
4.713
4.67094
4.63033
4.59111
4.55321
4.51659
4.48118
4.44694
4.41382
4.38177
4.35076
4.32073
4.29166
4.26351
4.23623
4.2098
4.1842
4.15937
4.13531
4.11199
4.08937
4.06744
4.04617
4.02554
5.16903
5.11049
5.0541
4.99981
4.94751
4.89712
4.84856
4.80173
4.75656
4.71299
4.67092
4.63031
4.59108
4.55318
4.51655
4.48114
4.4469
4.41377
4.38172
4.3507
4.32067
4.2916
4.26344
4.23616
4.20972
4.18411
4.15928
4.13521
4.11188
4.08925
4.06731
4.04602
4.02538
5.16903
5.11049
5.0541
4.9998
4.94751
4.89712
4.84855
4.80172
4.75655
4.71297
4.67091
4.63029
4.59106
4.55316
4.51653
4.48111
4.44686
4.41373
4.38168
4.35065
4.32062
4.29154
4.26337
4.23608
4.20965
4.18402
4.15919
4.13511
4.11176
4.08912
4.06717
4.04587
4.02521
5.16903
5.11049
5.0541
4.9998
4.9475
4.89711
4.84854
4.80171
4.75654
4.71296
4.67089
4.63027
4.59104
4.55313
4.51649
4.48108
4.44682
4.41369
4.38163
4.3506
4.32056
4.29148
4.2633
4.23601
4.20957
4.18393
4.15909
4.135
4.11165
4.08899
4.06702
4.04571
4.02503
5.16903
5.11049
5.0541
4.9998
4.9475
4.89711
4.84854
4.80171
4.75654
4.71295
4.67088
4.63026
4.59103
4.55312
4.51648
4.48106
4.4468
4.41367
4.3816
4.35057
4.32052
4.29143
4.26325
4.23595
4.2095
4.18386
4.159
4.1349
4.11153
4.08887
4.06688
4.04555
4.02485
5.16903
5.11049
5.0541
4.9998
4.9475
4.8971
4.84853
4.8017
4.75652
4.71294
4.67086
4.63024
4.591
4.55309
4.51645
4.48103
4.44677
4.41363
4.38156
4.35052
4.32047
4.29137
4.26319
4.23588
4.20942
4.18377
4.15891
4.1348
4.11142
4.08874
4.06674
4.04539
4.02467
5.16903
5.11049
5.0541
4.9998
4.9475
4.89711
4.84854
4.80171
4.75654
4.71296
4.67088
4.63026
4.59102
4.55311
4.51647
4.48104
4.44678
4.41363
4.38156
4.35052
4.32046
4.29136
4.26316
4.23585
4.20938
4.18372
4.15885
4.13473
4.11133
4.08864
4.06663
4.04526
4.02453
5.16903
5.11049
5.0541
4.9998
4.9475
4.8971
4.84853
4.8017
4.75652
4.71293
4.67086
4.63023
4.59099
4.55308
4.51644
4.48101
4.44675
4.4136
4.38153
4.35048
4.32043
4.29132
4.26313
4.23581
4.20933
4.18367
4.15879
4.13466
4.11126
4.08856
4.06654
4.04517
4.02442
5.16903
5.11049
5.0541
4.99981
4.94752
4.89715
4.84859
4.80177
4.75661
4.71303
4.67097
4.63035
4.59111
4.5532
4.51655
4.48113
4.44686
4.41372
4.38164
4.3506
4.32054
4.29143
4.26324
4.23592
4.20945
4.18379
4.15891
4.13479
4.1114
4.0887
4.06668
4.04531
4.02457
5.16903
5.11051
5.05413
4.99985
4.94756
4.89717
4.84861
4.80178
4.75662
4.71304
4.67098
4.63037
4.59114
4.55325
4.51663
4.48122
4.44699
4.41388
4.38184
4.35084
4.32083
4.29177
4.26363
4.23637
4.20996
4.18437
4.15956
4.13551
4.1122
4.08958
4.06765
4.04637
4.02572
5.16903
5.1105
5.05415
4.99992
4.9477
4.89739
4.84891
4.80215
4.75706
4.71354
4.67155
4.63101
4.59188
4.55408
4.51757
4.48229
4.44821
4.41526
4.38341
4.35262
4.32284
4.29403
4.26615
4.23918
4.21308
4.1878
4.16333
4.13963
4.11668
4.09443
4.07288
4.052
4.03175
5.16905
5.11063
5.0544
5.00025
4.94809
4.89785
4.84947
4.80288
4.75802
4.71484
4.67325
4.63322
4.59467
4.55755
4.52181
4.48738
4.45422
4.42228
4.3915
4.36184
4.33324
4.30567
4.27908
4.25343
4.22868
4.20479
4.18173
4.15945
4.13793
4.11713
4.09703
4.0776
4.0588
5.16908
5.11079
5.05488
5.00137
4.95018
4.90122
4.85443
4.80976
4.76716
4.72656
4.6879
4.6511
4.61609
4.58276
4.55105
4.52085
4.49209
4.46469
4.43856
4.41363
4.38982
4.36707
4.34531
4.32448
4.30453
4.2854
4.26704
4.2494
4.23245
4.21615
4.20044
4.18531
4.17072
5.16939
5.11357
5.062
5.01464
4.9715
4.93253
4.89755
4.86629
4.83842
4.81363
4.7916
4.772
4.75457
4.73904
4.72517
4.71276
4.70162
4.69157
4.68248
4.67421
4.66665
4.6597
4.65327
4.64729
4.64167
4.63638
4.63134
4.62652
4.62188
4.61738
4.61299
4.60868
4.60443
5.17809
5.16327
5.16957
5.19134
5.22462
5.26638
5.31423
5.36628
5.42111
5.47762
5.53497
5.59251
5.64972
5.70622
5.76172
5.81599
5.86886
5.92022
5.96999
6.01811
6.06456
6.10933
6.15243
6.19387
6.23367
6.27187
6.3085
6.34362
6.37725
6.40946
6.44028
6.46977
6.498
5.6386
6.4304
7.14578
7.82517
8.49368
9.14534
9.77427
10.3781
10.9568
11.5111
12.0425
12.5525
13.0428
13.5147
13.9697
14.4087
14.833
15.2434
15.6409
16.0261
16.3998
16.7628
17.1155
17.4586
17.7926
18.1182
18.4357
18.7458
19.0489
19.3455
19.636
19.9208
20.2004
44.7794
48.3124
51.8864
55.4656
59.0311
62.5709
66.0745
69.5321
72.9351
76.2756
79.5468
82.7429
85.859
88.8912
91.8363
94.6919
97.4564
100.129
102.708
105.195
107.59
109.894
112.107
114.231
116.269
118.221
120.091
121.879
123.589
125.222
126.781
128.268
129.688
691.231
829.426
962.841
1093.51
1212.27
1298.67
1330.84
1300.07
1218.94
1111.83
1001.6
901.933
817.364
747.269
689.514
642.185
603.863
573.416
549.866
531.864
518.179
507.67
499.28
492.014
484.886
476.88
466.935
453.941
436.755
414.242
385.344
349.23
305.554
254.873
199.213
142.619
91.0771
50.9043
25.5209
13.1665
8.64555
7.46851
7.42521
7.71209
8.06243
8.38293
8.63741
8.8133
8.91088
8.93794
8.90605
8.82779
8.71512
8.57845
8.42645
8.26606
8.10276
7.94077
7.78334
7.63289
7.49117
7.35943
7.23853
7.12897
7.03096
6.94442
6.86893
6.80369
6.74751
6.6987
6.65511
6.61411
6.57267
6.52747
6.47505
6.41206
6.33545
6.24267
6.13174
6.00113
5.84962
5.67602
5.47892
5.25671
5.00788
4.73166
4.42906
4.10382
3.76313
3.41763
3.08055
2.76582
2.48579
2.24892
2.05849
1.91253
1.80519
1.72802
1.67606
1.62379
154.844
165.401
183.143
213.113
261
331.503
425.533
537.143
652.418
752.577
820.836
849.423
841.836
809.204
764.284
717.019
673.118
634.802
602.098
574.223
550.151
528.939
509.716
491.578
473.535
454.526
433.467
409.3
381.053
347.93
309.449
265.677
217.542
167.203
118.25
75.3487
42.817
22.4492
12.3245
8.36047
7.15307
6.97208
7.14688
7.43417
7.7361
8.0059
8.21978
8.36791
8.44993
8.4716
8.44197
8.37123
8.26929
8.14499
8.0058
7.85787
7.70609
7.55432
7.40556
7.26209
7.12563
6.99742
6.87836
6.76906
6.66987
6.58091
6.50203
6.43278
6.37233
6.31949
6.27262
6.22963
6.18804
6.14503
6.09752
6.04242
5.97675
5.89787
5.80353
5.69187
5.5613
5.41026
5.2371
5.03998
4.81716
4.56762
4.29189
3.99306
3.6775
3.35491
3.03766
2.73905
2.47116
2.24267
2.05741
1.91421
1.80805
1.73119
1.67917
1.62658
31.0689
31.6376
32.3602
33.6416
36.4177
42.6081
55.3367
78.4319
115.153
166.77
231.346
303.504
375.568
439.515
489.044
521.036
535.872
536.346
525.486
507.778
486.872
464.864
442.489
419.627
395.758
370.232
342.422
311.808
278.068
241.208
201.732
160.837
120.541
83.5962
52.9692
30.8112
17.3354
10.5975
7.79067
6.80301
6.57119
6.65634
6.87559
7.14114
7.404
7.63493
7.81733
7.94383
8.01402
8.03228
8.00574
7.94265
7.85118
7.73881
7.61199
7.47612
7.33558
7.1939
7.05384
6.91756
6.78669
6.66246
6.5458
6.43736
6.3376
6.24678
6.16495
6.09192
6.02722
5.97005
5.91924
5.87324
5.83011
5.78754
5.74294
5.69352
5.6365
5.56922
5.48928
5.39454
5.28309
5.15305
5.0025
4.82939
4.63177
4.40829
4.15901
3.88632
3.59567
3.2958
2.99814
2.71533
2.45919
2.2386
2.05803
1.91713
1.81177
1.73489
1.68259
1.62947
12.2886
12.3218
12.3093
12.1863
11.8678
11.2993
10.6193
10.4119
11.7584
16.0253
24.7379
39.2964
60.4463
87.6958
119.237
152.441
184.465
212.901
236.531
253.538
262.944
264.841
260.063
249.732
234.904
216.424
194.94
171.023
145.325
118.719
92.3938
67.8321
46.6258
30.0863
18.7423
12.0349
8.59894
7.02309
6.37256
6.17719
6.21792
6.38307
6.60737
6.84868
7.07845
7.27757
7.43437
7.54339
7.60427
7.62032
7.59717
7.54144
7.45988
7.35878
7.2437
7.11937
6.98969
6.85786
6.72645
6.59747
6.47247
6.35266
6.23895
6.13202
6.0324
5.94043
5.8563
5.78002
5.71139
5.64995
5.59494
5.54529
5.49958
5.45604
5.41255
5.36676
5.31614
5.25815
5.19032
5.11033
5.01598
4.90514
4.77563
4.62517
4.45161
4.25327
4.02972
3.78262
3.5165
3.23905
2.96073
2.69348
2.44885
2.2359
2.05973
1.92085
1.81603
1.73894
1.68621
1.6324
7.97068
7.9832
7.99044
7.98441
7.94489
7.82854
7.56205
7.06766
6.33581
5.51458
5.00522
5.32346
6.82272
9.74466
14.2853
20.4849
28.1085
36.5271
45.3256
54.0568
62.0214
68.4457
72.6506
74.1812
72.8714
68.8473
62.4907
54.3892
45.2819
35.9959
27.3554
20.0509
14.4882
10.6875
8.33384
6.98009
6.24702
5.89249
5.77639
5.81311
5.94579
6.13408
6.34784
6.56395
6.7647
6.93711
7.07276
7.16751
7.22096
7.23561
7.21585
7.167
7.09462
7.00399
6.89988
6.7864
6.66706
6.54475
6.42181
6.30013
6.18119
6.06614
5.95587
5.85108
5.7523
5.65995
5.57429
5.49547
5.42349
5.35814
5.29902
5.24546
5.19652
5.15093
5.10711
5.06314
5.01686
4.96594
4.90796
4.84049
4.76115
4.66756
4.55731
4.42795
4.27708
4.10271
3.90392
3.68165
3.43946
3.18401
2.92473
2.67283
2.43952
2.23405
2.06211
1.92509
1.82063
1.74318
1.6899
1.63531
6.16174
6.17184
6.1818
6.1921
6.20209
6.20839
6.20034
6.15351
6.02752
5.77697
5.39438
4.9576
4.59423
4.43885
4.62094
5.23364
6.30432
7.83731
9.57449
11.3072
12.9272
14.3311
15.408
16.0533
16.1915
15.7989
14.9177
13.6562
12.1724
10.6419
9.22052
8.01288
7.06159
6.3602
5.87776
5.57776
5.42529
5.38871
5.44037
5.55654
5.71667
5.90263
6.09837
6.28982
6.46513
6.61503
6.73315
6.8162
6.86372
6.87754
6.86106
6.81855
6.75455
6.67351
6.57951
6.47614
6.36652
6.25325
6.1385
6.02401
5.91118
5.80112
5.69469
5.59258
5.49531
5.40332
5.31694
5.2364
5.1618
5.09316
5.03031
4.97293
4.92048
4.87217
4.8269
4.78326
4.73951
4.69362
4.6433
4.58616
4.51967
4.44128
4.3484
4.23839
4.10862
3.95683
3.78161
3.58318
3.36416
3.13014
2.88953
2.65275
2.43064
2.23257
2.0648
1.92955
1.82539
1.74748
1.69359
1.63813
5.20984
5.21347
5.2175
5.22267
5.22974
5.23927
5.25116
5.26344
5.26995
5.25781
5.20837
5.10754
4.95806
4.78585
4.6389
4.57349
4.63206
4.85391
5.17169
5.53576
5.90466
6.24334
6.52243
6.71895
6.81786
6.81392
6.71275
6.53041
6.2911
6.02319
5.75477
5.50985
5.30623
5.15489
5.06078
5.02405
5.04133
5.10676
5.21276
5.3506
5.51084
5.68364
5.8591
6.02774
6.18102
6.31194
6.4155
6.48894
6.53172
6.54512
6.53175
6.49501
6.43862
6.3663
6.28154
6.18749
6.08691
5.98216
5.87522
5.76771
5.66095
5.556
5.45368
5.35466
5.25947
5.16854
5.08221
5.00077
4.92439
4.8532
4.78724
4.72642
4.67052
4.61917
4.57174
4.52729
4.48455
4.44187
4.39721
4.34826
4.29249
4.22723
4.14972
4.05715
3.94674
3.81593
3.66286
3.48707
3.29028
3.07699
2.8546
2.63269
2.42168
2.23101
2.06743
1.93399
1.8301
1.75171
1.69715
1.6408
4.67088
4.66739
4.66438
4.66232
4.66172
4.66311
4.66698
4.67365
4.68289
4.69323
4.70099
4.70018
4.68439
4.65023
4.60076
4.54708
4.50555
4.49471
4.51737
4.5689
4.63986
4.71893
4.79507
4.8589
4.90355
4.9252
4.9232
4.90001
4.86072
4.81238
4.76302
4.72075
4.6929
4.6854
4.70236
4.746
4.81664
4.91286
5.03165
5.16867
5.31845
5.47466
5.63041
5.77874
5.91313
6.02805
6.11944
6.18493
6.22388
6.23713
6.22665
6.19513
6.1456
6.08117
6.00483
5.91932
5.8271
5.73031
5.63074
5.52993
5.4291
5.32926
5.23121
5.1356
5.04294
4.95364
4.86807
4.7865
4.70916
4.63626
4.56792
4.50424
4.44526
4.3909
4.34094
4.29492
4.25202
4.21102
4.17023
4.12752
4.08041
4.02619
3.962
3.8849
3.79195
3.68035
3.54783
3.39329
3.2176
3.02423
2.81951
2.61219
2.41221
2.22898
2.0697
1.93814
1.8346
1.75574
1.70051
1.64323
4.36047
4.35042
4.34088
4.33216
4.32461
4.3186
4.31449
4.3126
4.31313
4.31607
4.32103
4.3269
4.33173
4.33315
4.32919
4.31946
4.30583
4.29242
4.28301
4.28002
4.28406
4.29412
4.30809
4.3234
4.33769
4.34926
4.35732
4.36219
4.36524
4.36874
4.37563
4.38918
4.41265
4.44897
4.50046
4.56855
4.65369
4.75525
4.87147
4.99954
5.13568
5.27524
5.41303
5.54362
5.66185
5.76324
5.84439
5.90322
5.93902
5.95227
5.94442
5.91757
5.87419
5.81687
5.74816
5.67045
5.58593
5.49652
5.40388
5.30942
5.21432
5.11953
5.02581
4.9338
4.84399
4.75679
4.67255
4.59154
4.51403
4.44021
4.3703
4.30449
4.24296
4.1859
4.13339
4.08538
4.04151
4.00101
3.96256
3.92432
3.88396
3.83877
3.78587
3.72222
3.64474
3.55045
3.43672
3.30191
3.14604
2.97161
2.78394
2.59089
2.40186
2.22615
2.07132
1.9418
1.83871
1.75945
1.70358
1.64538
4.18484
4.1693
4.15426
4.13993
4.12655
4.11441
4.10376
4.09488
4.08798
4.08319
4.08053
4.07985
4.08077
4.08257
4.08436
4.08525
4.08475
4.0831
4.0809
4.07897
4.07811
4.07886
4.08145
4.08589
4.09202
4.09974
4.10914
4.12061
4.13489
4.15312
4.17674
4.20737
4.24669
4.29627
4.35735
4.43073
4.51658
4.61435
4.72271
4.8395
4.96178
5.0859
5.20773
5.32293
5.42731
5.51716
5.5896
5.64277
5.67589
5.68918
5.68366
5.66096
5.62307
5.57212
5.5103
5.43969
5.36222
5.27964
5.19347
5.10502
5.01539
4.9255
4.8361
4.74778
4.66105
4.57629
4.49384
4.41397
4.33694
4.26296
4.19225
4.12506
4.06167
4.0024
3.94759
3.89751
3.8522
3.81133
3.77402
3.73875
3.70341
3.6654
3.62181
3.56959
3.50557
3.42661
3.32982
3.21305
3.0756
2.91905
2.7477
2.56853
2.39034
2.22225
2.07205
1.94479
1.84231
1.76275
1.70627
1.64719
4.08973
4.07
4.05072
4.03205
4.01417
3.99728
3.98161
3.96739
3.95479
3.94399
3.93507
3.92808
3.92295
3.91953
3.91753
3.9166
3.91639
3.91665
3.91726
3.91827
3.91985
3.92227
3.92583
3.93086
3.9377
3.94674
3.95843
3.97333
3.99215
4.01572
4.04501
4.08105
4.12486
4.17739
4.23935
4.31116
4.39278
4.48366
4.58264
4.68793
4.79714
4.90731
5.01509
5.11691
5.20933
5.28925
5.35418
5.40244
5.43322
5.44651
5.44301
5.42394
5.3909
5.34564
5.29002
5.22584
5.15483
5.07854
4.99839
4.91558
4.83116
4.746
4.66083
4.57623
4.49269
4.41059
4.33027
4.25199
4.17599
4.10248
4.03168
3.96385
3.8993
3.83844
3.78176
3.72977
3.68286
3.64111
3.60405
3.57054
3.53874
3.50621
3.47011
3.42738
3.37481
3.30919
3.22741
3.12692
3.00638
2.86652
2.71067
2.54494
2.37746
2.21707
2.07172
1.94694
1.84527
1.76555
1.70854
1.64861
4.04143
4.01882
3.99659
3.97485
3.95375
3.93345
3.91415
3.89602
3.87924
3.86399
3.85037
3.8385
3.82841
3.8201
3.81351
3.80854
3.80507
3.80295
3.80208
3.80241
3.80396
3.80683
3.81117
3.81723
3.82533
3.83585
3.84924
3.86604
3.88686
3.91238
3.94333
3.98044
4.02444
4.07593
4.13537
4.20293
4.27848
4.36146
4.45085
4.54515
4.64234
4.74001
4.83537
4.92551
5.00752
5.07879
5.13716
5.18109
5.20974
5.22294
5.22113
5.2052
5.1764
5.13619
5.08612
5.02777
4.96263
4.89214
4.81755
4.74002
4.66053
4.5799
4.49883
4.41791
4.33761
4.25832
4.18035
4.10398
4.02943
3.9569
3.88661
3.81879
3.75377
3.69196
3.63396
3.58042
3.532
3.48912
3.45173
3.41907
3.38961
3.36111
3.33084
3.29578
3.25276
3.19851
3.1298
3.04378
2.93856
2.81412
2.67289
2.52007
2.3631
2.21049
2.07019
1.94815
1.84752
1.7678
1.71035
1.64962
4.01875
3.99438
3.9703
3.94661
3.92343
3.90089
3.87914
3.85835
3.83868
3.82029
3.8033
3.78786
3.77403
3.76189
3.75147
3.74277
3.73578
3.73047
3.72684
3.72487
3.72461
3.72611
3.72952
3.73501
3.74282
3.75328
3.76674
3.78364
3.80448
3.82979
3.86012
3.89603
3.93801
3.9865
4.04176
4.10386
4.1726
4.24744
4.3275
4.41148
4.49772
4.58418
4.66855
4.7484
4.82128
4.88494
4.93749
4.97752
5.00418
5.01717
5.01671
5.00345
4.97835
4.94259
4.89747
4.84436
4.78457
4.71938
4.64995
4.57734
4.50247
4.42615
4.34904
4.27171
4.19464
4.11821
4.04274
3.9685
3.8957
3.82454
3.75523
3.68797
3.62306
3.56093
3.50218
3.44755
3.39789
3.3539
3.31587
3.28343
3.25537
3.2297
3.20383
3.17483
3.13957
3.09481
3.03728
2.9639
2.87239
2.76202
2.63443
2.49393
2.34725
2.20243
2.06738
1.94834
1.849
1.76945
1.71167
1.65021
4.00901
3.98368
3.95857
3.93376
3.90935
3.88545
3.86218
3.8397
3.81814
3.79764
3.77834
3.76037
3.74385
3.72885
3.71547
3.70376
3.69376
3.68552
3.67908
3.6745
3.67183
3.67118
3.67266
3.67644
3.68272
3.69177
3.70389
3.71942
3.73875
3.76229
3.79048
3.8237
3.86235
3.90669
3.95689
4.01295
4.07463
4.14146
4.21263
4.28707
4.36334
4.43974
4.51435
4.58508
4.64987
4.70676
4.75408
4.79054
4.81529
4.82793
4.82852
4.81749
4.79557
4.7637
4.72299
4.67457
4.61963
4.55929
4.49461
4.42658
4.35605
4.2838
4.21047
4.13663
4.06273
3.98916
3.91626
3.84427
3.77342
3.70392
3.63593
3.56965
3.50536
3.44344
3.38447
3.32925
3.27872
3.23379
3.19504
3.16245
3.13513
3.11135
3.08869
3.06434
3.03524
2.99824
2.95007
2.88757
2.80813
2.71048
2.5955
2.46666
2.32994
2.19289
2.06327
1.94748
1.84966
1.77049
1.71249
1.65038
4.00518
3.97939
3.95377
3.92838
3.9033
3.87864
3.85449
3.83097
3.80822
3.78635
3.76551
3.74581
3.72736
3.71029
3.69468
3.68062
3.66819
3.65747
3.64854
3.64148
3.63639
3.63338
3.63256
3.63412
3.63823
3.64511
3.65503
3.66826
3.68512
3.70593
3.73102
3.76071
3.79525
3.83485
3.8796
3.92944
3.98414
4.04327
4.10614
4.17179
4.23903
4.30641
4.37229
4.4349
4.49246
4.54327
4.58585
4.619
4.64187
4.65402
4.65536
4.64616
4.62696
4.59849
4.56165
4.51744
4.46687
4.41095
4.35064
4.28685
4.22038
4.15197
4.08224
4.01173
3.94092
3.87018
3.79984
3.73018
3.66141
3.59372
3.5273
3.46232
3.39902
3.33775
3.27905
3.2237
3.1727
3.12709
3.0877
3.0548
3.02779
3.00522
2.98484
2.96396
2.93965
2.90884
2.86837
2.81505
2.74609
2.65978
2.55633
2.43843
2.3113
2.18195
2.05786
1.94555
1.84952
1.77092
1.71284
1.65015
4.00379
3.9778
3.95194
3.92627
3.90085
3.87577
3.85111
3.82698
3.80348
3.78073
3.75884
3.73793
3.71812
3.69952
3.68222
3.66634
3.65197
3.6392
3.62813
3.61887
3.61152
3.60621
3.60307
3.60226
3.60394
3.60833
3.61565
3.62613
3.64004
3.65764
3.67918
3.70492
3.73505
3.76971
3.80894
3.85268
3.9007
3.95259
4.00777
4.0654
4.12447
4.18373
4.24178
4.29711
4.34817
4.39348
4.4317
4.46174
4.48276
4.49428
4.49612
4.48839
4.47147
4.44594
4.41252
4.37206
4.32542
4.27352
4.21721
4.15733
4.09465
4.02984
3.96351
3.8962
3.82836
3.76038
3.69258
3.62525
3.5586
3.49284
3.42814
3.36467
3.30263
3.24233
3.18428
3.1292
3.07811
3.03214
2.99229
2.95905
2.93214
2.91031
2.89152
2.87319
2.85251
2.82655
2.79227
2.74658
2.68658
2.61025
2.51722
2.40948
2.29151
2.1697
2.05124
1.9426
1.84858
1.77076
1.71274
1.64957
4.0033
3.97722
3.95126
3.92545
3.89985
3.87453
3.84957
3.82504
3.80105
3.7777
3.75508
3.7333
3.71248
3.69272
3.67412
3.65679
3.64083
3.62636
3.61347
3.60227
3.59289
3.58544
3.58008
3.57694
3.57619
3.57802
3.58263
3.59023
3.60103
3.61526
3.63313
3.65484
3.68054
3.71033
3.74422
3.78214
3.82388
3.86907
3.91719
3.96753
4.0192
4.07115
4.12215
4.17091
4.21609
4.25638
4.29058
4.31767
4.33686
4.34763
4.34973
4.34315
4.32814
4.30514
4.27471
4.23757
4.19447
4.14621
4.09356
4.03729
3.97812
3.91668
3.85356
3.78928
3.72429
3.65897
3.59366
3.52863
3.46412
3.40032
3.33742
3.27557
3.21497
3.15589
3.09876
3.04429
2.99345
2.94741
2.9073
2.87382
2.8469
2.82554
2.80786
2.79139
2.77343
2.75119
2.72181
2.68233
2.62987
2.5622
2.4785
2.38011
2.27079
2.15632
2.04349
1.93869
1.84688
1.77004
1.71223
1.64868
4.0031
3.97698
3.95096
3.92507
3.89936
3.87389
3.84872
3.82392
3.79958
3.77577
3.7526
3.73016
3.70855
3.68787
3.66823
3.64971
3.63244
3.61652
3.60205
3.58916
3.57795
3.56857
3.56113
3.5558
3.55272
3.55207
3.55402
3.55878
3.56652
3.57743
3.59171
3.60949
3.63092
3.65606
3.68491
3.71739
3.75331
3.79233
3.83401
3.87773
3.92271
3.96804
4.01268
4.05549
4.09532
4.13099
4.16145
4.18575
4.20313
4.21305
4.2152
4.2095
4.19607
4.17521
4.1474
4.1132
4.07327
4.02829
3.97899
3.92604
3.87012
3.81182
3.75172
3.69031
3.62803
3.56527
3.50236
3.43958
3.37717
3.31534
3.25427
3.19411
3.13505
3.07732
3.02132
2.96768
2.91735
2.87151
2.83136
2.79775
2.77084
2.74981
2.73292
2.71783
2.7019
2.6825
2.65692
2.62242
2.5762
2.51595
2.4405
2.35062
2.24941
2.14201
2.03477
1.93391
1.8445
1.76881
1.71135
1.64753
4.00297
3.97683
3.95077
3.92482
3.89903
3.87344
3.84811
3.8231
3.79848
3.77432
3.7507
3.72772
3.70546
3.68403
3.6635
3.64399
3.6256
3.60842
3.59258
3.57818
3.56535
3.5542
3.54487
3.5375
3.53224
3.52925
3.5287
3.53074
3.53556
3.54332
3.55417
3.56825
3.58566
3.60645
3.63061
3.65806
3.68862
3.72201
3.75782
3.79551
3.83442
3.87376
3.91262
3.95003
3.98496
4.0164
4.04337
4.06501
4.0806
4.08959
4.09162
4.08655
4.0744
4.05537
4.02983
3.99822
3.96112
3.91912
3.87286
3.82296
3.77004
3.71467
3.65739
3.59868
3.53898
3.47866
3.41805
3.35745
3.2971
3.2372
3.17795
3.1195
3.06202
3.00572
2.95097
2.89834
2.84872
2.80327
2.76326
2.72968
2.70282
2.68206
2.6658
2.65176
2.63738
2.62012
2.59748
2.5669
2.52579
2.47181
2.40357
2.32136
2.22766
2.12699
2.02523
1.92837
1.84149
1.76713
1.71016
1.64619
4.00285
3.97669
3.95059
3.92459
3.89873
3.87304
3.84758
3.82238
3.79752
3.77306
3.74907
3.72563
3.70283
3.68074
3.65946
3.63908
3.61971
3.60145
3.58439
3.56865
3.55435
3.54161
3.53056
3.52133
3.51406
3.5089
3.506
3.50552
3.50761
3.51241
3.52007
3.53069
3.54436
3.56112
3.58095
3.60378
3.62944
3.65768
3.68814
3.72036
3.75376
3.78765
3.82127
3.85374
3.88419
3.91171
3.93542
3.95453
3.96836
3.97636
3.97814
3.97348
3.96236
3.94488
3.92129
3.89198
3.8574
3.81808
3.77458
3.72747
3.67733
3.62468
3.57004
3.51387
3.4566
3.3986
3.3402
3.28169
3.22333
3.16532
3.10785
3.05109
2.99519
2.94037
2.88692
2.83539
2.78661
2.74172
2.70201
2.66855
2.64182
2.62133
2.60561
2.59243
2.57928
2.56368
2.54329
2.51579
2.47879
2.43005
2.36804
2.29266
2.20584
2.11153
2.01508
1.92221
1.83797
1.76507
1.70871
1.6447
4.00272
3.97653
3.9504
3.92436
3.89843
3.87265
3.84706
3.8217
3.79663
3.77191
3.74759
3.72375
3.70047
3.67782
3.65588
3.63475
3.61452
3.59528
3.57714
3.56021
3.5446
3.53042
3.5178
3.50687
3.49775
3.4906
3.48554
3.48272
3.48229
3.48436
3.48906
3.49649
3.50671
3.51975
3.53561
3.5542
3.57538
3.59892
3.62452
3.65176
3.68014
3.70909
3.73791
3.76588
3.79221
3.8161
3.83677
3.85348
3.86558
3.87254
3.87395
3.86955
3.85923
3.84304
3.82115
3.79385
3.76152
3.72461
3.68362
3.63907
3.59148
3.54136
3.48918
3.4354
3.38043
3.32463
3.26833
3.21183
3.15538
3.0992
3.04346
2.98836
2.93403
2.88066
2.82855
2.77818
2.73032
2.68608
2.64676
2.61353
2.58699
2.56679
2.55157
2.53916
2.52705
2.51278
2.49415
2.46905
2.43533
2.39091
2.33421
2.26486
2.18429
2.09589
2.00453
1.91559
1.83404
1.7627
1.70706
1.64313
4.00257
3.97636
3.95019
3.9241
3.89811
3.87224
3.84654
3.82103
3.79578
3.77082
3.74621
3.72202
3.69832
3.67517
3.65265
3.63085
3.60986
3.58976
3.57066
3.55266
3.53587
3.52039
3.50635
3.49387
3.48307
3.47409
3.46705
3.46209
3.45933
3.45889
3.46087
3.46536
3.47241
3.48206
3.49427
3.50899
3.52608
3.54534
3.56649
3.5892
3.61302
3.63745
3.66191
3.68575
3.70829
3.72882
3.74663
3.76106
3.77149
3.77738
3.77833
3.77404
3.76436
3.74925
3.72882
3.70328
3.67295
3.63822
3.59951
3.5573
3.51206
3.46428
3.4144
3.36286
3.31005
3.25634
3.20206
3.14748
3.09287
3.03844
2.98439
2.93088
2.87808
2.82616
2.77538
2.72618
2.67928
2.63576
2.59691
2.56396
2.53764
2.51776
2.50304
2.49136
2.48017
2.46704
2.44982
2.4266
2.39549
2.35461
2.30239
2.23829
2.16333
2.08038
1.99382
1.90869
1.82984
1.76012
1.70528
1.64152
4.00241
3.97617
3.94997
3.92383
3.89777
3.87182
3.84601
3.82037
3.79495
3.76978
3.74491
3.72041
3.69633
3.67274
3.64971
3.62732
3.60565
3.58479
3.56483
3.54587
3.52801
3.51136
3.49604
3.48215
3.46982
3.45918
3.45033
3.44341
3.43852
3.43577
3.43526
3.43706
3.44122
3.44775
3.45664
3.46782
3.48117
3.49652
3.51364
3.53221
3.55187
3.57218
3.59264
3.61269
3.63174
3.64915
3.6643
3.67657
3.68537
3.6902
3.69063
3.68634
3.67713
3.66292
3.64374
3.61976
3.59122
3.55844
3.5218
3.48173
3.43867
3.39306
3.34533
3.29589
3.24514
3.19342
3.14105
3.08831
3.03547
2.98274
2.93032
2.87837
2.82706
2.77655
2.72708
2.67904
2.63312
2.59034
2.55199
2.51936
2.49329
2.47372
2.4595
2.44853
2.43823
2.42613
2.41011
2.3884
2.35936
2.32133
2.27287
2.2133
2.14331
2.06531
1.98322
1.90173
1.8255
1.75743
1.70344
1.63992
4.00224
3.97596
3.94972
3.92354
3.89742
3.87139
3.84548
3.81972
3.79414
3.76878
3.74368
3.7189
3.69449
3.67051
3.64702
3.62411
3.60184
3.58029
3.55956
3.53974
3.52093
3.50323
3.48674
3.47159
3.45787
3.44571
3.43521
3.4265
3.41967
3.41482
3.41203
3.41137
3.41288
3.41657
3.42242
3.43037
3.44032
3.45211
3.46553
3.48033
3.49619
3.51274
3.52953
3.5461
3.56193
3.57645
3.58911
3.59933
3.60658
3.61035
3.61022
3.60585
3.597
3.58354
3.56545
3.54283
3.51588
3.48486
3.4501
3.412
3.37094
3.32736
3.28165
3.23421
3.18541
3.13559
3.08506
3.03411
2.98299
2.93191
2.88107
2.83064
2.78078