/*--------------------------------*- C++ -*----------------------------------*\
| =========                 |                                                 |
| \\      /  F ield         | OpenFOAM: The Open Source CFD Toolbox           |
|  \\    /   O peration     | Version:  2.1.1                                 |
|   \\  /    A nd           | Web:      www.OpenFOAM.org                      |
|    \\/     M anipulation  |                                                 |
\*---------------------------------------------------------------------------*/
FoamFile
{
    version     2.0;
    format      ascii;
    class       volScalarField;
    location    "0.065";
    object      k;
}
// * * * * * * * * * * * * * * * * * * * * * * * * * * * * * * * * * * * * * //

dimensions      [0 2 -2 0 0 0 0];

internalField   nonuniform List<scalar> 
6820
(
0.28891
0.351398
0.415005
0.477466
0.536857
0.591548
0.640352
0.682592
0.718063
0.746934
0.76965
0.786825
0.799159
0.80737
0.812148
0.814125
0.813862
0.811846
0.808485
0.804119
0.799025
0.793427
0.7875
0.781382
0.775177
0.768961
0.762786
0.7567
0.750655
0.744959
0.738132
0.737161
0.708137
0.265533
0.269397
0.270523
0.271342
0.272563
0.274225
0.276243
0.278506
0.280901
0.283345
0.285782
0.288183
0.290538
0.292853
0.295145
0.297433
0.299739
0.302083
0.304485
0.306959
0.30952
0.312176
0.314938
0.317812
0.320806
0.32393
0.327196
0.330625
0.334248
0.338143
0.342356
0.347395
0.352784
0.262037
0.264253
0.263594
0.261555
0.258998
0.256316
0.253624
0.250935
0.248238
0.245522
0.242792
0.240059
0.237343
0.234666
0.23205
0.229517
0.227086
0.224773
0.22259
0.220548
0.218653
0.216911
0.215323
0.213891
0.212615
0.211494
0.210527
0.209715
0.209058
0.208566
0.208235
0.208103
0.208152
0.259885
0.260273
0.259797
0.258536
0.256829
0.254891
0.252832
0.250708
0.248544
0.246355
0.244147
0.241928
0.239705
0.237484
0.235273
0.233079
0.230909
0.228772
0.226672
0.224615
0.222608
0.220652
0.218752
0.21691
0.215128
0.213406
0.211745
0.210145
0.208605
0.207124
0.205698
0.204331
0.203007
0.259299
0.258404
0.2576
0.256567
0.255295
0.25385
0.252291
0.25066
0.248982
0.247274
0.245548
0.24381
0.242068
0.240326
0.23859
0.236863
0.235148
0.23345
0.231771
0.230115
0.228482
0.226877
0.225299
0.223752
0.222235
0.220751
0.219298
0.217878
0.216489
0.215132
0.213806
0.212509
0.21124
0.259225
0.257848
0.256623
0.255437
0.254228
0.25297
0.251663
0.250312
0.248928
0.24752
0.246098
0.244666
0.243231
0.241797
0.240368
0.238946
0.237534
0.236134
0.234749
0.233379
0.232027
0.230693
0.229379
0.228085
0.226813
0.225562
0.224334
0.223127
0.221943
0.22078
0.21964
0.218521
0.217423
0.259217
0.257715
0.256309
0.25498
0.253698
0.252442
0.251195
0.24995
0.248703
0.247453
0.246202
0.244952
0.243705
0.242463
0.241229
0.240003
0.238788
0.237585
0.236395
0.235219
0.234059
0.232914
0.231785
0.230673
0.229579
0.228502
0.227442
0.226401
0.225378
0.224372
0.223384
0.222414
0.221462
0.259218
0.25769
0.256225
0.254822
0.253477
0.252181
0.250923
0.249695
0.248491
0.247305
0.246134
0.244978
0.243835
0.242705
0.241588
0.240485
0.239395
0.238319
0.237258
0.236211
0.23518
0.234164
0.233163
0.232178
0.23121
0.230257
0.22932
0.228399
0.227495
0.226607
0.225734
0.224878
0.224039
0.259218
0.257687
0.256207
0.25478
0.253405
0.252079
0.250799
0.249559
0.248356
0.247184
0.24604
0.244922
0.243827
0.242753
0.241699
0.240664
0.239647
0.238649
0.237667
0.236703
0.235755
0.234825
0.23391
0.233012
0.23213
0.231263
0.230413
0.229578
0.228759
0.227956
0.227168
0.226396
0.22564
0.259218
0.257686
0.256203
0.254769
0.253384
0.252045
0.250751
0.249499
0.248287
0.247113
0.245972
0.244864
0.243785
0.242733
0.241707
0.240705
0.239727
0.238769
0.237833
0.236917
0.236019
0.235141
0.234281
0.233438
0.232612
0.231803
0.231011
0.230235
0.229475
0.228731
0.228003
0.22729
0.226593
0.259218
0.257686
0.256202
0.254767
0.253378
0.252034
0.250734
0.249476
0.248259
0.247079
0.245936
0.244827
0.24375
0.242705
0.241688
0.240699
0.239736
0.238798
0.237883
0.236991
0.236121
0.235271
0.234442
0.233632
0.23284
0.232066
0.231311
0.230572
0.22985
0.229145
0.228456
0.227784
0.227128
0.259218
0.257685
0.256202
0.254766
0.253376
0.252031
0.250729
0.249468
0.248247
0.247065
0.245918
0.244807
0.24373
0.242684
0.241669
0.240684
0.239726
0.238795
0.237889
0.237007
0.236149
0.235314
0.2345
0.233706
0.232933
0.232179
0.231444
0.230727
0.230028
0.229346
0.228682
0.228034
0.227403
0.259218
0.257685
0.256201
0.254765
0.253375
0.252029
0.250727
0.249465
0.248243
0.247058
0.245911
0.244798
0.243719
0.242673
0.241657
0.240672
0.239715
0.238785
0.237882
0.237004
0.236151
0.235321
0.234514
0.233728
0.232963
0.232219
0.231494
0.230788
0.230101
0.229432
0.228782
0.228148
0.227532
0.259218
0.257685
0.256201
0.254764
0.253374
0.252028
0.250725
0.249463
0.24824
0.247055
0.245907
0.244793
0.243714
0.242666
0.24165
0.240664
0.239707
0.238777
0.237875
0.236998
0.236146
0.235318
0.234513
0.23373
0.232969
0.232228
0.231508
0.230808
0.230127
0.229464
0.22882
0.228194
0.227585
0.259218
0.257685
0.256201
0.254764
0.253374
0.252028
0.250724
0.249462
0.248238
0.247053
0.245904
0.24479
0.24371
0.242662
0.241646
0.240659
0.239702
0.238772
0.237869
0.236992
0.23614
0.235313
0.234508
0.233727
0.232967
0.232228
0.23151
0.230811
0.230133
0.229473
0.228832
0.228209
0.227604
0.259218
0.257685
0.2562
0.254764
0.253373
0.252027
0.250723
0.24946
0.248237
0.247051
0.245902
0.244788
0.243708
0.24266
0.241643
0.240656
0.239698
0.238768
0.237865
0.236988
0.236136
0.235308
0.234504
0.233723
0.232963
0.232225
0.231507
0.23081
0.230132
0.229473
0.228833
0.228212
0.227608
0.259218
0.257685
0.2562
0.254763
0.253373
0.252026
0.250722
0.249459
0.248236
0.24705
0.245901
0.244786
0.243705
0.242657
0.24164
0.240653
0.239695
0.238765
0.237861
0.236984
0.236132
0.235305
0.2345
0.233719
0.23296
0.232222
0.231504
0.230807
0.23013
0.229472
0.228832
0.228211
0.227608
0.259218
0.257685
0.2562
0.254763
0.253372
0.252026
0.250722
0.249458
0.248235
0.247049
0.245899
0.244784
0.243704
0.242655
0.241638
0.24065
0.239692
0.238762
0.237859
0.236981
0.236129
0.235301
0.234497
0.233716
0.232956
0.232219
0.231501
0.230804
0.230127
0.229469
0.22883
0.228209
0.227606
0.259218
0.257684
0.2562
0.254763
0.253372
0.252025
0.250721
0.249458
0.248234
0.247048
0.245898
0.244783
0.243702
0.242653
0.241636
0.240648
0.23969
0.238759
0.237856
0.236979
0.236126
0.235299
0.234494
0.233713
0.232954
0.232216
0.231499
0.230802
0.230125
0.229467
0.228827
0.228206
0.227603
0.259218
0.257684
0.2562
0.254763
0.253372
0.252025
0.25072
0.249457
0.248233
0.247047
0.245897
0.244782
0.2437
0.242651
0.241634
0.240646
0.239688
0.238757
0.237854
0.236976
0.236124
0.235296
0.234492
0.23371
0.232951
0.232213
0.231496
0.230799
0.230122
0.229464
0.228824
0.228203
0.2276
0.259218
0.257684
0.2562
0.254762
0.253371
0.252024
0.25072
0.249456
0.248232
0.247046
0.245895
0.24478
0.243699
0.24265
0.241632
0.240644
0.239686
0.238755
0.237851
0.236974
0.236121
0.235294
0.234489
0.233708
0.232948
0.23221
0.231493
0.230796
0.230119
0.229461
0.228821
0.2282
0.227596
0.259218
0.257684
0.256199
0.254762
0.253371
0.252024
0.250719
0.249456
0.248231
0.247045
0.245895
0.244779
0.243698
0.242648
0.241631
0.240643
0.239684
0.238753
0.237849
0.236972
0.236119
0.235291
0.234487
0.233705
0.232946
0.232208
0.23149
0.230793
0.230116
0.229457
0.228817
0.228196
0.227591
0.259218
0.257684
0.256199
0.254762
0.253371
0.252024
0.250719
0.249455
0.248231
0.247044
0.245894
0.244778
0.243697
0.242647
0.241629
0.240641
0.239682
0.238751
0.237847
0.23697
0.236117
0.235289
0.234484
0.233703
0.232943
0.232205
0.231487
0.23079
0.230112
0.229454
0.228813
0.228191
0.227587
0.259218
0.257684
0.256199
0.254762
0.253371
0.252023
0.250719
0.249455
0.24823
0.247043
0.245893
0.244777
0.243696
0.242646
0.241628
0.24064
0.239681
0.23875
0.237846
0.236968
0.236115
0.235287
0.234482
0.2337
0.23294
0.232202
0.231484
0.230787
0.230109
0.22945
0.228809
0.228187
0.227581
0.259218
0.257684
0.256199
0.254762
0.25337
0.252023
0.250718
0.249455
0.24823
0.247043
0.245892
0.244777
0.243695
0.242645
0.241627
0.240639
0.239679
0.238748
0.237844
0.236966
0.236113
0.235285
0.23448
0.233698
0.232938
0.232199
0.231481
0.230783
0.230105
0.229446
0.228805
0.228181
0.227576
0.259218
0.257684
0.256199
0.254762
0.25337
0.252023
0.250718
0.249454
0.24823
0.247043
0.245892
0.244776
0.243694
0.242644
0.241626
0.240638
0.239678
0.238747
0.237843
0.236964
0.236111
0.235283
0.234478
0.233695
0.232935
0.232196
0.231478
0.23078
0.230101
0.229441
0.2288
0.228176
0.22757
0.259218
0.257684
0.256199
0.254762
0.25337
0.252023
0.250718
0.249454
0.248229
0.247042
0.245891
0.244775
0.243693
0.242643
0.241625
0.240636
0.239677
0.238746
0.237841
0.236963
0.23611
0.235281
0.234475
0.233693
0.232932
0.232193
0.231475
0.230776
0.230097
0.229437
0.228795
0.228171
0.227563
0.259218
0.257684
0.256199
0.254762
0.25337
0.252023
0.250718
0.249454
0.248229
0.247042
0.245891
0.244775
0.243693
0.242643
0.241624
0.240636
0.239676
0.238745
0.23784
0.236962
0.236108
0.235279
0.234474
0.233691
0.23293
0.232191
0.231472
0.230773
0.230093
0.229433
0.22879
0.228165
0.227557
0.259218
0.257684
0.256199
0.254762
0.25337
0.252023
0.250718
0.249454
0.248229
0.247041
0.245891
0.244775
0.243692
0.242642
0.241624
0.240635
0.239675
0.238744
0.237839
0.23696
0.236107
0.235277
0.234472
0.233689
0.232928
0.232188
0.231469
0.230769
0.230089
0.229428
0.228785
0.22816
0.227551
0.259218
0.257684
0.256199
0.254762
0.25337
0.252023
0.250718
0.249454
0.248229
0.247042
0.245891
0.244775
0.243693
0.242643
0.241624
0.240635
0.239676
0.238744
0.237839
0.23696
0.236106
0.235277
0.234471
0.233688
0.232926
0.232186
0.231467
0.230767
0.230087
0.229425
0.228781
0.228155
0.227546
0.259218
0.257684
0.256199
0.254762
0.25337
0.252023
0.250718
0.249454
0.248229
0.247041
0.245891
0.244775
0.243692
0.242642
0.241623
0.240635
0.239675
0.238743
0.237838
0.236959
0.236106
0.235276
0.23447
0.233687
0.232925
0.232185
0.231465
0.230765
0.230084
0.229422
0.228777
0.228151
0.227541
0.259218
0.257684
0.256199
0.254762
0.253371
0.252024
0.25072
0.249456
0.248232
0.247045
0.245894
0.244779
0.243696
0.242646
0.241627
0.240639
0.239679
0.238747
0.237842
0.236963
0.236109
0.235279
0.234473
0.233689
0.232927
0.232186
0.231466
0.230765
0.230084
0.229421
0.228776
0.228149
0.227538
0.259218
0.257685
0.2562
0.254763
0.253372
0.252026
0.250721
0.249457
0.248233
0.247046
0.245895
0.24478
0.243698
0.242648
0.24163
0.240641
0.239681
0.23875
0.237845
0.236966
0.236111
0.235282
0.234475
0.233691
0.232928
0.232187
0.231466
0.230765
0.230082
0.229418
0.228772
0.228144
0.227532
0.259218
0.257685
0.256201
0.254766
0.253378
0.252034
0.250731
0.24947
0.248247
0.247061
0.245911
0.244796
0.243714
0.242664
0.241645
0.240656
0.239696
0.238763
0.237857
0.236977
0.236122
0.23529
0.234481
0.233695
0.232931
0.232187
0.231463
0.230759
0.230073
0.229406
0.228756
0.228124
0.227508
0.259219
0.257689
0.256209
0.254777
0.253389
0.252045
0.250743
0.249482
0.248259
0.247074
0.245924
0.244809
0.243727
0.242677
0.241657
0.240666
0.239703
0.238767
0.237858
0.236973
0.236113
0.235275
0.234461
0.233668
0.232896
0.232144
0.231412
0.230698
0.230003
0.229326
0.228666
0.228023
0.227396
0.25922
0.257694
0.256221
0.254799
0.253423
0.25209
0.250796
0.249539
0.248318
0.247132
0.245979
0.244858
0.243768
0.242708
0.241676
0.240672
0.239694
0.238742
0.237814
0.236911
0.23603
0.235172
0.234335
0.23352
0.232724
0.231949
0.231192
0.230453
0.229733
0.22903
0.228343
0.227674
0.227019
0.259229
0.257738
0.256292
0.254881
0.253508
0.252171
0.25087
0.249603
0.248367
0.247162
0.245986
0.244838
0.243717
0.242623
0.241554
0.240511
0.239493
0.238498
0.237527
0.236578
0.235652
0.234747
0.233863
0.233
0.232156
0.231332
0.230527
0.22974
0.228971
0.228219
0.227484
0.226766
0.226063
0.259265
0.257822
0.256453
0.255125
0.253805
0.252484
0.251166
0.249857
0.248564
0.247294
0.246049
0.244832
0.243644
0.242485
0.241355
0.240253
0.239179
0.238131
0.23711
0.236113
0.23514
0.23419
0.233263
0.232358
0.231474
0.23061
0.229766
0.228942
0.228136
0.227349
0.22658
0.225828
0.225093
0.259599
0.258632
0.257577
0.256541
0.255586
0.254712
0.253903
0.253147
0.25244
0.251776
0.251156
0.250579
0.250044
0.249551
0.249097
0.248683
0.248307
0.247966
0.247661
0.247389
0.247148
0.246938
0.246757
0.246604
0.246478
0.246378
0.246302
0.246251
0.246222
0.246217
0.246233
0.246271
0.24633
0.266719
0.280569
0.294241
0.307622
0.320667
0.333362
0.345693
0.35765
0.369226
0.380415
0.391216
0.401626
0.411647
0.421283
0.430537
0.439416
0.447928
0.456079
0.463879
0.471337
0.478464
0.485269
0.491763
0.497957
0.503861
0.509486
0.514842
0.519941
0.524792
0.529405
0.533791
0.537957
0.541919
0.832987
1.01852
1.24705
1.51818
1.81121
2.08969
2.31531
2.46542
2.5453
2.57916
2.59262
2.60145
2.6112
2.62265
2.63633
2.65376
2.67678
2.70658
2.74342
2.78597
2.83226
2.8797
2.92516
2.96492
2.99471
3.00976
3.00488
2.97456
2.91307
2.8146
2.67352
2.48492
2.24562
1.95604
1.62348
1.26668
0.919982
0.630021
0.436066
0.342131
0.315672
0.320643
0.337043
0.356387
0.375061
0.391408
0.40469
0.414711
0.421628
0.425803
0.427697
0.427783
0.4265
0.424229
0.421287
0.417932
0.41437
0.410766
0.407247
0.403913
0.400839
0.39808
0.395675
0.393648
0.392009
0.390756
0.389871
0.389325
0.389073
0.389056
0.3892
0.389412
0.389579
0.389566
0.38921
0.388329
0.386725
0.384197
0.380551
0.375609
0.369223
0.361268
0.351656
0.34033
0.327284
0.312583
0.296392
0.279005
0.260856
0.242515
0.22464
0.207902
0.19289
0.180017
0.169465
0.161177
0.154913
0.15029
0.147096
0.143882
0.36338
0.381332
0.411924
0.464874
0.552728
0.688376
0.879776
1.12314
1.39876
1.67453
1.91709
2.10505
2.23519
2.31863
2.37195
2.40956
2.44066
2.4697
2.49795
2.52549
2.55168
2.57532
2.59436
2.60578
2.60568
2.58951
2.5523
2.4889
2.3942
2.2635
2.09313
1.88147
1.63071
1.34933
1.05513
0.77674
0.548937
0.397798
0.323116
0.300359
0.303261
0.316665
0.333716
0.351223
0.367491
0.381569
0.392983
0.401608
0.407575
0.411176
0.412784
0.412788
0.411558
0.409417
0.406641
0.403457
0.40005
0.396568
0.39313
0.38983
0.386741
0.38392
0.381408
0.379235
0.37742
0.375968
0.374875
0.374121
0.373676
0.373494
0.373517
0.373667
0.373846
0.373932
0.373774
0.373198
0.372009
0.370004
0.366983
0.362763
0.357182
0.35011
0.341448
0.33113
0.31914
0.305526
0.290433
0.274127
0.257009
0.239616
0.222574
0.206532
0.192067
0.179595
0.169316
0.161198
0.155028
0.15045
0.147273
0.144059
0.208157
0.208482
0.209782
0.21299
0.219963
0.234356
0.262232
0.31202
0.393312
0.514117
0.67648
0.873395
1.0895
1.30507
1.50157
1.6665
1.79548
1.8907
1.9563
2.00055
2.03015
2.04844
2.05576
2.05055
2.03013
1.99131
1.93062
1.84469
1.73063
1.58675
1.41358
1.21522
1.00099
0.786562
0.593096
0.442151
0.345874
0.299266
0.285393
0.288519
0.299619
0.314241
0.329982
0.345357
0.359394
0.371477
0.381278
0.388712
0.39388
0.397009
0.398399
0.398367
0.397219
0.395231
0.39264
0.389645
0.386411
0.383071
0.379737
0.376494
0.373414
0.370552
0.367952
0.365648
0.363663
0.362012
0.360699
0.359716
0.359044
0.358655
0.358502
0.358526
0.358645
0.358754
0.358717
0.35837
0.357527
0.355985
0.353542
0.350007
0.345209
0.339009
0.331297
0.321997
0.31108
0.298578
0.28461
0.269409
0.253344
0.236912
0.220706
0.205351
0.191414
0.179318
0.169282
0.161304
0.155201
0.150646
0.14747
0.144241
0.201533
0.199943
0.198384
0.196775
0.195092
0.19347
0.192481
0.193592
0.199184
0.212075
0.235709
0.274457
0.332864
0.413428
0.514798
0.631729
0.756284
0.879917
0.995789
1.09561
1.17388
1.2285
1.25975
1.26882
1.25671
1.22382
1.17013
1.0957
1.00141
0.889842
0.766045
0.638128
0.517006
0.41461
0.340094
0.295573
0.275452
0.271087
0.275702
0.285373
0.297839
0.311604
0.325563
0.338878
0.350927
0.361282
0.369705
0.376127
0.380621
0.383362
0.384585
0.384548
0.383502
0.381679
0.379283
0.376488
0.37344
0.37026
0.367048
0.363884
0.360837
0.35796
0.355297
0.352884
0.350748
0.348909
0.347378
0.346159
0.345244
0.344616
0.344246
0.34409
0.344086
0.344145
0.344151
0.343956
0.343382
0.342234
0.340307
0.337405
0.333351
0.327995
0.321216
0.312927
0.303085
0.291701
0.278869
0.264789
0.249791
0.23433
0.218964
0.204293
0.190875
0.179139
0.169328
0.161469
0.155416
0.150868
0.147682
0.144425
0.209792
0.208151
0.206498
0.204822
0.20309
0.201248
0.19924
0.197105
0.195116
0.193825
0.194146
0.197062
0.203264
0.213527
0.228912
0.250408
0.278406
0.312043
0.350713
0.393003
0.435956
0.475784
0.508651
0.531328
0.541606
0.538448
0.522006
0.493617
0.455818
0.41233
0.367835
0.327334
0.295026
0.273068
0.261103
0.257118
0.258877
0.264706
0.273427
0.28411
0.295959
0.30827
0.32042
0.331873
0.3422
0.351088
0.358349
0.363921
0.367854
0.370278
0.371376
0.371355
0.370421
0.368769
0.366571
0.363981
0.361126
0.358116
0.355041
0.351976
0.348985
0.346118
0.343419
0.340923
0.33866
0.336654
0.334921
0.333472
0.33231
0.331428
0.330814
0.330438
0.330257
0.330203
0.33018
0.330058
0.329675
0.328843
0.327363
0.325035
0.321674
0.317121
0.311245
0.303947
0.295167
0.284896
0.273202
0.260247
0.246321
0.231837
0.217315
0.203327
0.190421
0.179035
0.169434
0.161681
0.155662
0.15111
0.147904
0.14461
0.216165
0.214729
0.213278
0.21181
0.21032
0.2088
0.207237
0.205604
0.203882
0.202102
0.200449
0.19929
0.198937
0.199567
0.201342
0.204438
0.208995
0.215166
0.222397
0.230253
0.238505
0.246788
0.254538
0.261058
0.265655
0.267804
0.26731
0.264396
0.259718
0.254247
0.249062
0.245107
0.243007
0.243041
0.245246
0.24953
0.255713
0.263537
0.272675
0.282756
0.293383
0.30414
0.314624
0.32446
0.333329
0.340987
0.34728
0.352148
0.355619
0.357787
0.358796
0.358806
0.357989
0.356506
0.354505
0.352118
0.349458
0.346623
0.343696
0.340745
0.337828
0.334995
0.332286
0.329736
0.327375
0.325229
0.323318
0.321657
0.320257
0.319123
0.318251
0.317629
0.317231
0.317011
0.316894
0.316772
0.316501
0.315908
0.314799
0.312975
0.310246
0.306445
0.301429
0.295088
0.287345
0.27817
0.267601
0.255766
0.24291
0.229402
0.215724
0.202418
0.190022
0.17898
0.169582
0.161924
0.15593
0.151364
0.148131
0.144792
0.220372
0.219125
0.217865
0.216596
0.215326
0.214058
0.212794
0.211531
0.21026
0.208971
0.207674
0.206427
0.205342
0.204558
0.204208
0.204388
0.205132
0.206489
0.208228
0.210211
0.212342
0.214542
0.216733
0.218832
0.22076
0.222463
0.22393
0.225212
0.226424
0.227738
0.229362
0.231512
0.234386
0.238146
0.242898
0.248685
0.255482
0.263192
0.271659
0.28067
0.289972
0.299283
0.308312
0.316777
0.324428
0.331066
0.336559
0.340848
0.343942
0.345909
0.346855
0.34691
0.34621
0.344892
0.343081
0.340892
0.338424
0.335766
0.332992
0.330165
0.327338
0.324558
0.321864
0.319287
0.316858
0.314603
0.312544
0.310698
0.309082
0.307707
0.30658
0.305702
0.305064
0.304638
0.304373
0.304184
0.303952
0.303518
0.302701
0.301305
0.29914
0.296029
0.291819
0.286388
0.279642
0.271532
0.262064
0.251332
0.239535
0.226999
0.214162
0.201538
0.18965
0.178951
0.169752
0.162184
0.156209
0.151623
0.148358
0.144969
0.223078
0.221981
0.220874
0.219763
0.218655
0.217557
0.216478
0.215425
0.214402
0.213412
0.212452
0.21153
0.210666
0.209901
0.209287
0.208884
0.20874
0.208894
0.209318
0.20997
0.210807
0.211794
0.212908
0.214133
0.215466
0.216913
0.218494
0.220244
0.222218
0.224486
0.227133
0.230248
0.233921
0.238228
0.243221
0.248919
0.255305
0.262314
0.269838
0.277729
0.285803
0.29385
0.301645
0.308966
0.315608
0.321405
0.32624
0.330053
0.332842
0.33465
0.335557
0.335664
0.335081
0.333922
0.332293
0.330294
0.328013
0.325528
0.322909
0.320211
0.317486
0.314776
0.312116
0.309538
0.307071
0.304738
0.302562
0.300564
0.298761
0.29717
0.295804
0.294674
0.293785
0.293128
0.292675
0.292366
0.292105
0.291755
0.291151
0.290106
0.288427
0.285934
0.282466
0.277886
0.272087
0.264997
0.256595
0.246937
0.23618
0.224603
0.212602
0.200658
0.18928
0.178925
0.169925
0.162447
0.15649
0.15188
0.14858
0.145137
0.224776
0.223792
0.222802
0.221811
0.220827
0.219858
0.218912
0.217998
0.217124
0.216296
0.215518
0.214795
0.214132
0.21354
0.213036
0.212644
0.212391
0.212299
0.212379
0.212636
0.213064
0.21366
0.214419
0.215342
0.216436
0.217716
0.219205
0.220932
0.222936
0.225261
0.227959
0.231082
0.234678
0.238789
0.243442
0.248642
0.254369
0.260571
0.267165
0.274037
0.281045
0.288021
0.294787
0.301159
0.306968
0.312071
0.316364
0.319788
0.322329
0.324013
0.324897
0.32506
0.324591
0.323583
0.322126
0.320308
0.318206
0.315891
0.313425
0.31086
0.308244
0.305614
0.303006
0.300449
0.297968
0.295588
0.293329
0.291213
0.289257
0.28748
0.285901
0.284537
0.283404
0.282508
0.281842
0.281371
0.281024
0.280691
0.280224
0.279449
0.278177
0.276225
0.273424
0.269626
0.264711
0.258585
0.251201
0.242578
0.232833
0.222196
0.21102
0.199754
0.188889
0.178882
0.170087
0.162701
0.156761
0.152128
0.148791
0.145292
0.2258
0.224898
0.223993
0.22309
0.222195
0.221316
0.220461
0.219639
0.218859
0.218127
0.217451
0.216835
0.216284
0.215804
0.215401
0.215085
0.214869
0.214767
0.21479
0.21495
0.215253
0.215707
0.216319
0.217096
0.218052
0.219203
0.220569
0.222176
0.224053
0.226234
0.228754
0.23165
0.234954
0.238692
0.242878
0.247513
0.252576
0.258025
0.263793
0.269788
0.275894
0.281976
0.287887
0.293474
0.298594
0.303123
0.306968
0.31007
0.312407
0.313993
0.314866
0.315087
0.314725
0.313858
0.312564
0.310916
0.308985
0.306833
0.304516
0.302085
0.299581
0.297042
0.294498
0.291979
0.289507
0.287106
0.284795
0.282594
0.280521
0.278594
0.276835
0.275264
0.273905
0.272777
0.271889
0.27123
0.270755
0.27038
0.269981
0.269398
0.268452
0.266959
0.264744
0.261653
0.257547
0.252318
0.245893
0.238258
0.229485
0.219763
0.209398
0.198806
0.188456
0.178803
0.17022
0.162934
0.157016
0.152361
0.148988
0.145432
0.226382
0.225537
0.224691
0.223848
0.223015
0.222197
0.221403
0.220641
0.219918
0.219242
0.218621
0.218059
0.217562
0.217135
0.216782
0.21651
0.216324
0.216234
0.216248
0.216378
0.216631
0.217017
0.217547
0.218233
0.219087
0.220125
0.221366
0.222832
0.224547
0.226537
0.228831
0.231454
0.23443
0.237778
0.241507
0.245614
0.250081
0.254872
0.259933
0.265186
0.270537
0.275874
0.281073
0.286007
0.290554
0.294605
0.298075
0.300907
0.303076
0.304581
0.30545
0.305725
0.305464
0.304729
0.303585
0.302097
0.300327
0.29833
0.296159
0.293859
0.29147
0.289025
0.286556
0.284088
0.281644
0.279245
0.276909
0.274654
0.272497
0.270458
0.268555
0.266811
0.265255
0.263913
0.262809
0.26195
0.261319
0.260858
0.260467
0.260006
0.259307
0.25819
0.256478
0.254008
0.250632
0.246224
0.240689
0.233982
0.226136
0.217295
0.207724
0.197797
0.187963
0.178674
0.170313
0.163134
0.157245
0.152572
0.149165
0.145553
0.226688
0.225879
0.225071
0.224268
0.223474
0.222695
0.221938
0.221211
0.220519
0.219872
0.219275
0.218734
0.218255
0.217844
0.217503
0.217239
0.217056
0.216959
0.216957
0.217057
0.217267
0.217598
0.218059
0.218662
0.21942
0.220349
0.221464
0.222786
0.224333
0.226128
0.228193
0.230548
0.233212
0.236199
0.239514
0.243154
0.247103
0.25133
0.255789
0.260417
0.265133
0.269845
0.274448
0.278835
0.282899
0.286547
0.289699
0.292303
0.294326
0.295764
0.29663
0.296956
0.296786
0.296172
0.295167
0.293827
0.292208
0.290359
0.288327
0.286155
0.28388
0.281534
0.279145
0.276739
0.274336
0.271957
0.269619
0.267337
0.265129
0.26301
0.261
0.259121
0.257402
0.255874
0.254571
0.253518
0.252717
0.252139
0.251708
0.251307
0.250782
0.249961
0.248668
0.246732
0.244
0.24033
0.235608
0.229762
0.22279
0.214791
0.205987
0.196716
0.1874
0.178481
0.170353
0.163294
0.157443
0.152758
0.149319
0.145653
0.226834
0.226047
0.225262
0.224481
0.22371
0.222953
0.222216
0.221505
0.220827
0.220188
0.219596
0.219055
0.218571
0.218151
0.217797
0.217515
0.217311
0.217187
0.217152
0.21721
0.217369
0.217639
0.218028
0.218547
0.219209
0.220027
0.221017
0.222194
0.223576
0.225181
0.227028
0.229132
0.231509
0.23417
0.237117
0.240347
0.243846
0.247588
0.251534
0.25563
0.259808
0.263991
0.26809
0.272012
0.275666
0.278967
0.281846
0.28425
0.286147
0.287523
0.288386
0.288757
0.288669
0.288162
0.287284
0.286081
0.284602
0.282892
0.280993
0.278945
0.276782
0.274536
0.272232
0.269894
0.267544
0.2652
0.262877
0.260592
0.258358
0.256191
0.254108
0.25213
0.250283
0.248603
0.247129
0.245896
0.244927
0.244214
0.24371
0.243319
0.242905
0.242306
0.241349
0.239861
0.237683
0.234664
0.230674
0.225615
0.219455
0.212252
0.204186
0.195556
0.186755
0.178214
0.170331
0.163404
0.157602
0.152913
0.149447
0.14573
0.226897
0.226121
0.225347
0.224579
0.223819
0.223072
0.222342
0.221636
0.220959
0.220317
0.219716
0.219161
0.218659
0.218214
0.217832
0.217517
0.217274
0.217108
0.217024
0.217028
0.217126
0.217327
0.217639
0.218071
0.218634
0.219342
0.220206
0.221241
0.222463
0.223887
0.225528
0.2274
0.229515
0.231881
0.234501
0.23737
0.240477
0.243798
0.247301
0.250939
0.254657
0.258386
0.262052
0.265573
0.268872
0.271873
0.274512
0.276739
0.27852
0.279839
0.280696
0.281103
0.281086
0.280676
0.279912
0.278834
0.277485
0.275905
0.274132
0.272202
0.270149
0.268001
0.265784
0.26352
0.26123
0.258931
0.256638
0.254367
0.25213
0.24994
0.247814
0.245769
0.243832
0.242035
0.24042
0.239031
0.237905
0.237056
0.236457
0.236039
0.235684
0.235241
0.234544
0.233422
0.231711
0.229254
0.225909
0.22156
0.216145
0.209687
0.202324
0.194316
0.186026
0.177869
0.170243
0.163461
0.15772
0.153036
0.149548
0.145783
0.22692
0.226149
0.22538
0.224617
0.223861
0.223116
0.222387
0.221679
0.220995
0.220342
0.219725
0.21915
0.218622
0.218145
0.217726
0.217368
0.217078
0.216859
0.216717
0.216658
0.216688
0.216814
0.217043
0.217384
0.217847
0.218443
0.219184
0.220082
0.22115
0.222402
0.22385
0.225507
0.227382
0.229482
0.231808
0.234357
0.237117
0.24007
0.243186
0.246427
0.249744
0.253079
0.256367
0.259539
0.262526
0.26526
0.267684
0.26975
0.271424
0.272687
0.273533
0.273969
0.274011
0.273686
0.273024
0.27206
0.27083
0.26937
0.267716
0.265899
0.263952
0.261901
0.259771
0.257583
0.255358
0.253112
0.25086
0.248616
0.246393
0.244202
0.242057
0.239975
0.237978
0.236097
0.234375
0.232859
0.231597
0.230617
0.229917
0.229447
0.22911
0.22877
0.228267
0.227433
0.226105
0.224123
0.221336
0.217616
0.212876
0.207106
0.200406
0.192998
0.185211
0.177442
0.170083
0.163461
0.157793
0.153124
0.14962
0.145812
0.226926
0.226157
0.22539
0.224628
0.223872
0.223126
0.222393
0.221678
0.220985
0.220318
0.219683
0.219084
0.218526
0.218015
0.217556
0.217152
0.216811
0.216535
0.216332
0.216205
0.216162
0.216208
0.216352
0.2166
0.216962
0.217448
0.218068
0.218832
0.219753
0.220842
0.222111
0.223568
0.225223
0.22708
0.229141
0.231403
0.233855
0.236482
0.239257
0.242147
0.245111
0.248098
0.251053
0.253915
0.256623
0.259118
0.261346
0.263263
0.264835
0.266042
0.266872
0.267327
0.26742
0.267168
0.266596
0.265734
0.264612
0.263263
0.261719
0.26001
0.258164
0.256207
0.254163
0.252053
0.249896
0.247708
0.245504
0.243298
0.241101
0.238925
0.236781
0.234685
0.232656
0.230722
0.228923
0.22731
0.225935
0.224841
0.224041
0.223506
0.22316
0.222879
0.222514
0.221902
0.22088
0.21929
0.216978
0.213805
0.209667
0.204525
0.198445
0.191609
0.184314
0.176933
0.169851
0.163402
0.15782
0.153176
0.149665
0.145818
0.226926
0.226157
0.225391
0.224627
0.22387
0.223121
0.222383
0.22166
0.220955
0.220274
0.219619
0.218996
0.21841
0.217865
0.217366
0.216917
0.216525
0.216193
0.215927
0.215733
0.215617
0.215584
0.215642
0.215798
0.216061
0.216438
0.21694
0.217576
0.218357
0.219292
0.220391
0.221663
0.223115
0.224751
0.226571
0.228574
0.230749
0.233083
0.235553
0.23813
0.240779
0.243457
0.246113
0.248697
0.251153
0.253429
0.255476
0.257254
0.258728
0.259876
0.260685
0.261152
0.261284
0.261094
0.260601
0.25983
0.258807
0.25756
0.256118
0.254509
0.252759
0.250893
0.248934
0.246901
0.244813
0.242687
0.240536
0.238375
0.236214
0.234064
0.231937
0.229845
0.227805
0.225843
0.223996
0.222313
0.220851
0.21966
0.218769
0.218168
0.217795
0.217543
0.217271
0.216824
0.216042
0.214769
0.212852
0.210148
0.206538
0.201963
0.196454
0.19016
0.183342
0.176347
0.169549
0.163283
0.157801
0.153193
0.149682
0.145802
0.226924
0.226155
0.225387
0.224623
0.223863
0.22311
0.222366
0.221635
0.22092
0.220224
0.219551
0.218906
0.218293
0.217715
0.217179
0.216688
0.216247
0.215862
0.215538
0.215279
0.215092
0.214983
0.214958
0.215025
0.215191
0.215464
0.215853
0.216367
0.217014
0.217804
0.218745
0.219845
0.221109
0.222541
0.224141
0.225907
0.227831
0.2299
0.232095
0.234391
0.236756
0.239154
0.24154
0.243871
0.246097
0.248171
0.250051
0.251695
0.253074
0.254162
0.254945
0.255417
0.255579
0.25544
0.255015
0.254324
0.253389
0.252236
0.250888
0.249373
0.247714
0.245935
0.244057
0.2421
0.240081
0.238018
0.235924
0.233812
0.231693
0.229578
0.227478
0.225404
0.223371
0.221401
0.219528
0.2178
0.216275
0.215008
0.21404
0.213375
0.212967
0.212724
0.212513
0.212186
0.211587
0.210565
0.208971
0.206661
0.203509
0.199438
0.194451
0.188664
0.182304
0.17569
0.16918
0.163109
0.157737
0.153176
0.149672
0.145766
0.226921
0.226151
0.225383
0.224616
0.223854
0.223097
0.222348
0.221609
0.220884
0.220175
0.219485
0.21882
0.218182
0.217576
0.217005
0.216476
0.215991
0.215556
0.215177
0.214858
0.214605
0.214424
0.214321
0.214304
0.214379
0.214553
0.214835
0.215233
0.215755
0.216409
0.217202
0.218141
0.219231
0.220475
0.221874
0.223424
0.225118
0.226946
0.228891
0.230931
0.233038
0.235181
0.237321
0.23942
0.241434
0.243322
0.245043
0.246561
0.247846
0.248873
0.249626
0.250095
0.250278
0.250181
0.249814
0.249193
0.248337
0.247267
0.246006
0.244578
0.243004
0.241307
0.239507
0.237624
0.235675
0.233674
0.231638
0.229578
0.227507
0.225433
0.223368
0.221322
0.219307
0.217345
0.215465
0.213712
0.212144
0.21082
0.209789
0.209068
0.208624
0.208377
0.208206
0.207964
0.207504
0.206678
0.205343
0.203359
0.200598
0.196969
0.192454
0.187137
0.181212
0.17497
0.16875
0.16288
0.15763
0.153127
0.149638
0.145712
0.226917
0.226147
0.225377
0.224609
0.223843
0.223083
0.222328
0.221583
0.220848
0.220127
0.219424
0.21874
0.21808
0.217448
0.216847
0.216283
0.215759
0.215279
0.21485
0.214476
0.214162
0.213915
0.21374
0.213644
0.213634
0.213716
0.213898
0.214188
0.214593
0.21512
0.215775
0.216565
0.217494
0.218565
0.219777
0.221128
0.222613
0.22422
0.225936
0.227742
0.229614
0.231523
0.233438
0.235323
0.237141
0.238854
0.240427
0.241824
0.243017
0.243982
0.244699
0.245159
0.245356
0.245292
0.244974
0.244414
0.243627
0.242632
0.24145
0.240101
0.238607
0.236987
0.235262
0.23345
0.231568
0.229631
0.227653
0.225648
0.223626