/*--------------------------------*- C++ -*----------------------------------*\
| =========                 |                                                 |
| \\      /  F ield         | OpenFOAM: The Open Source CFD Toolbox           |
|  \\    /   O peration     | Version:  2.1.1                                 |
|   \\  /    A nd           | Web:      www.OpenFOAM.org                      |
|    \\/     M anipulation  |                                                 |
\*---------------------------------------------------------------------------*/
FoamFile
{
    version     2.0;
    format      ascii;
    class       volScalarField;
    location    "0.065";
    object      nut;
}
// * * * * * * * * * * * * * * * * * * * * * * * * * * * * * * * * * * * * * //

dimensions      [0 2 -1 0 0 0 0];

internalField   nonuniform List<scalar> 
6820
(
4.96025e-05
5.47044e-05
5.94497e-05
6.37667e-05
6.76164e-05
7.09771e-05
7.38469e-05
7.62436e-05
7.81995e-05
7.97561e-05
8.09598e-05
8.18582e-05
8.24973e-05
8.29201e-05
8.31651e-05
8.32662e-05
8.32529e-05
8.31497e-05
8.29774e-05
8.27531e-05
8.24906e-05
8.22012e-05
8.18937e-05
8.1575e-05
8.12505e-05
8.09242e-05
8.05988e-05
8.02768e-05
7.99557e-05
7.9652e-05
7.92865e-05
7.92346e-05
7.76598e-05
0.000540297
0.000304962
0.000219942
0.000171535
0.000140493
0.000119627
0.0001051
9.47156e-05
8.71509e-05
8.15696e-05
7.74213e-05
7.43326e-05
7.20426e-05
7.03654e-05
6.91656e-05
6.83428e-05
6.78218e-05
6.75446e-05
6.74668e-05
6.75532e-05
6.77758e-05
6.81121e-05
6.85435e-05
6.90549e-05
6.96332e-05
7.02675e-05
7.09482e-05
7.16664e-05
7.24155e-05
7.31827e-05
7.39703e-05
7.47438e-05
7.54554e-05
0.00105857
0.000836095
0.000679251
0.00056963
0.000490072
0.000430137
0.000383724
0.000346877
0.000316976
0.000292257
0.000271506
0.000253861
0.000238694
0.000225538
0.000214036
0.000203913
0.00019495
0.000186975
0.000179846
0.000173449
0.000167688
0.000162483
0.000157768
0.000153485
0.000149584
0.000146025
0.00014277
0.000139786
0.000137043
0.000134522
0.000132168
0.000130059
0.000127766
0.00115953
0.00109653
0.00101168
0.000926435
0.000849837
0.000783656
0.000727114
0.000678799
0.000637295
0.000601379
0.000570049
0.000542499
0.000518091
0.000496314
0.000476761
0.000459103
0.000443074
0.000428456
0.000415068
0.000402761
0.000391408
0.000380901
0.000371151
0.000362079
0.000353618
0.00034571
0.000338307
0.000331367
0.000324856
0.00031875
0.000313034
0.000307705
0.000302772
0.00116966
0.00115863
0.00113363
0.00109757
0.00105569
0.00101221
0.000969682
0.000929425
0.000891985
0.000857486
0.000825837
0.000796846
0.000770288
0.000745928
0.000723545
0.000702936
0.000683917
0.000666323
0.000650011
0.00063485
0.000620728
0.000607544
0.000595209
0.000583642
0.000572775
0.000562542
0.000552889
0.000543764
0.000535122
0.000526924
0.000519138
0.000511737
0.000504713
0.00117006
0.00116839
0.00116306
0.00115261
0.00113713
0.00111767
0.00109554
0.0010719
0.0010477
0.00102357
0.000999963
0.000977136
0.000955251
0.000934385
0.000914566
0.000895785
0.000878015
0.000861213
0.000845331
0.000830315
0.000816113
0.000802672
0.000789938
0.000777862
0.000766397
0.000755496
0.000745115
0.000735213
0.00072575
0.000716687
0.000707988
0.000699624
0.000691562
0.00116996
0.00116938
0.00116821
0.00116569
0.00116123
0.00115458
0.00114583
0.00113527
0.00112327
0.00111021
0.00109645
0.00108229
0.00106795
0.00105363
0.00103946
0.00102555
0.00101196
0.00099875
0.000985945
0.000973566
0.000961619
0.000950103
0.000939011
0.000928333
0.000918053
0.000908155
0.00089862
0.000889426
0.000880551
0.000871974
0.000863672
0.000855622
0.000847803
0.00116994
0.0011694
0.00116883
0.00116803
0.00116674
0.00116472
0.0011618
0.0011579
0.00115304
0.00114727
0.00114072
0.00113351
0.00112577
0.00111763
0.0011092
0.00110058
0.00109184
0.00108307
0.00107432
0.00106563
0.00105704
0.00104857
0.00104025
0.0010321
0.00102412
0.00101631
0.00100869
0.00100124
0.000993966
0.000986859
0.000979913
0.000973118
0.000966466
0.00116994
0.00116939
0.00116886
0.00116832
0.0011677
0.00116692
0.00116588
0.00116449
0.00116268
0.00116043
0.00115771
0.00115454
0.00115095
0.00114698
0.00114267
0.00113808
0.00113324
0.00112822
0.00112304
0.00111774
0.00111237
0.00110694
0.00110149
0.00109603
0.00109059
0.00108517
0.00107979
0.00107446
0.00106918
0.00106395
0.00105879
0.00105368
0.00104864
0.00116994
0.00116938
0.00116885
0.00116833
0.00116782
0.00116729
0.00116671
0.00116605
0.00116526
0.00116432
0.00116318
0.00116184
0.00116028
0.00115851
0.00115651
0.00115431
0.00115192
0.00114935
0.00114662
0.00114375
0.00114076
0.00113767
0.00113448
0.00113123
0.00112792
0.00112456
0.00112116
0.00111775
0.00111431
0.00111086
0.00110741
0.00110396
0.00110052
0.00116994
0.00116938
0.00116884
0.00116832
0.00116782
0.00116732
0.00116683
0.00116634
0.00116582
0.00116526
0.00116466
0.00116399
0.00116323
0.00116239
0.00116144
0.0011604
0.00115924
0.00115799
0.00115663
0.00115518
0.00115363
0.001152
0.00115029
0.00114851
0.00114666
0.00114476
0.0011428
0.0011408
0.00113876
0.00113669
0.00113459
0.00113247
0.00113032
0.00116994
0.00116938
0.00116884
0.00116832
0.00116781
0.00116732
0.00116684
0.00116637
0.00116591
0.00116545
0.00116498
0.00116451
0.00116401
0.0011635
0.00116295
0.00116236
0.00116174
0.00116107
0.00116035
0.00115959
0.00115877
0.00115791
0.00115701
0.00115605
0.00115506
0.00115402
0.00115295
0.00115184
0.00115069
0.00114952
0.00114832
0.00114709
0.00114585
0.00116994
0.00116938
0.00116884
0.00116832
0.00116781
0.00116732
0.00116684
0.00116637
0.00116591
0.00116547
0.00116504
0.00116461
0.00116418
0.00116376
0.00116333
0.0011629
0.00116246
0.00116201
0.00116155
0.00116107
0.00116058
0.00116006
0.00115953
0.00115897
0.0011584
0.00115781
0.00115719
0.00115656
0.00115591
0.00115524
0.00115456
0.00115386
0.00115315
0.00116994
0.00116938
0.00116884
0.00116832
0.00116781
0.00116731
0.00116683
0.00116636
0.00116591
0.00116547
0.00116504
0.00116462
0.00116421
0.00116381
0.00116341
0.00116302
0.00116264
0.00116226
0.00116188
0.0011615
0.00116112
0.00116074
0.00116036
0.00115997
0.00115958
0.00115918
0.00115878
0.00115837
0.00115795
0.00115753
0.00115711
0.00115668
0.00115625
0.00116994
0.00116938
0.00116884
0.00116832
0.00116781
0.00116731
0.00116683
0.00116636
0.00116591
0.00116546
0.00116503
0.00116461
0.00116421
0.00116381
0.00116342
0.00116304
0.00116267
0.00116231
0.00116196
0.00116161
0.00116127
0.00116093
0.0011606
0.00116027
0.00115994
0.00115962
0.0011593
0.00115898
0.00115866
0.00115835
0.00115804
0.00115773
0.00115743
0.00116994
0.00116938
0.00116884
0.00116831
0.0011678
0.00116731
0.00116683
0.00116636
0.0011659
0.00116546
0.00116503
0.00116461
0.0011642
0.0011638
0.00116342
0.00116304
0.00116267
0.00116232
0.00116197
0.00116163
0.00116129
0.00116097
0.00116065
0.00116034
0.00116004
0.00115974
0.00115945
0.00115916
0.00115888
0.00115861
0.00115834
0.00115808
0.00115783
0.00116994
0.00116938
0.00116884
0.00116831
0.0011678
0.00116731
0.00116683
0.00116636
0.0011659
0.00116546
0.00116503
0.00116461
0.0011642
0.0011638
0.00116341
0.00116304
0.00116267
0.00116231
0.00116196
0.00116162
0.00116129
0.00116097
0.00116066
0.00116035
0.00116005
0.00115976
0.00115948
0.00115921
0.00115894
0.00115868
0.00115843
0.00115819
0.00115795
0.00116994
0.00116938
0.00116884
0.00116831
0.0011678
0.00116731
0.00116682
0.00116635
0.0011659
0.00116545
0.00116502
0.0011646
0.00116419
0.0011638
0.00116341
0.00116303
0.00116266
0.00116231
0.00116196
0.00116162
0.00116129
0.00116097
0.00116066
0.00116035
0.00116005
0.00115977
0.00115949
0.00115922
0.00115895
0.0011587
0.00115845
0.00115821
0.00115798
0.00116994
0.00116938
0.00116884
0.00116831
0.0011678
0.00116731
0.00116682
0.00116635
0.0011659
0.00116545
0.00116502
0.0011646
0.00116419
0.00116379
0.00116341
0.00116303
0.00116266
0.0011623
0.00116195
0.00116162
0.00116129
0.00116096
0.00116065
0.00116035
0.00116005
0.00115976
0.00115949
0.00115921
0.00115895
0.0011587
0.00115845
0.00115822
0.00115799
0.00116994
0.00116938
0.00116884
0.00116831
0.0011678
0.0011673
0.00116682
0.00116635
0.00116589
0.00116545
0.00116502
0.0011646
0.00116419
0.00116379
0.0011634
0.00116302
0.00116266
0.0011623
0.00116195
0.00116161
0.00116128
0.00116096
0.00116065
0.00116034
0.00116005
0.00115976
0.00115948
0.00115921
0.00115895
0.00115869
0.00115845
0.00115821
0.00115799
0.00116994
0.00116938
0.00116884
0.00116831
0.0011678
0.0011673
0.00116682
0.00116635
0.00116589
0.00116545
0.00116502
0.0011646
0.00116419
0.00116379
0.0011634
0.00116302
0.00116265
0.0011623
0.00116195
0.00116161
0.00116128
0.00116096
0.00116064
0.00116034
0.00116004
0.00115976
0.00115948
0.00115921
0.00115894
0.00115869
0.00115844
0.00115821
0.00115798
0.00116994
0.00116938
0.00116884
0.00116831
0.0011678
0.0011673
0.00116682
0.00116635
0.00116589
0.00116545
0.00116501
0.00116459
0.00116418
0.00116378
0.0011634
0.00116302
0.00116265
0.00116229
0.00116194
0.0011616
0.00116127
0.00116095
0.00116064
0.00116034
0.00116004
0.00115975
0.00115947
0.0011592
0.00115894
0.00115869
0.00115844
0.0011582
0.00115797
0.00116994
0.00116938
0.00116884
0.00116831
0.0011678
0.0011673
0.00116682
0.00116635
0.00116589
0.00116545
0.00116501
0.00116459
0.00116418
0.00116378
0.00116339
0.00116302
0.00116265
0.00116229
0.00116194
0.0011616
0.00116127
0.00116095
0.00116064
0.00116033
0.00116004
0.00115975
0.00115947
0.0011592
0.00115894
0.00115868
0.00115843
0.00115819
0.00115796
0.00116994
0.00116938
0.00116884
0.00116831
0.0011678
0.0011673
0.00116682
0.00116635
0.00116589
0.00116544
0.00116501
0.00116459
0.00116418
0.00116378
0.00116339
0.00116301
0.00116265
0.00116229
0.00116194
0.0011616
0.00116127
0.00116095
0.00116063
0.00116033
0.00116003
0.00115974
0.00115946
0.00115919
0.00115893
0.00115867
0.00115843
0.00115819
0.00115795
0.00116994
0.00116938
0.00116884
0.00116831
0.0011678
0.0011673
0.00116682
0.00116635
0.00116589
0.00116544
0.00116501
0.00116459
0.00116418
0.00116378
0.00116339
0.00116301
0.00116264
0.00116228
0.00116194
0.0011616
0.00116126
0.00116094
0.00116063
0.00116032
0.00116003
0.00115974
0.00115946
0.00115919
0.00115892
0.00115867
0.00115842
0.00115818
0.00115794
0.00116994
0.00116938
0.00116884
0.00116831
0.0011678
0.0011673
0.00116682
0.00116635
0.00116589
0.00116544
0.00116501
0.00116459
0.00116418
0.00116378
0.00116339
0.00116301
0.00116264
0.00116228
0.00116193
0.00116159
0.00116126
0.00116094
0.00116063
0.00116032
0.00116002
0.00115973
0.00115945
0.00115918
0.00115892
0.00115866
0.00115841
0.00115817
0.00115793
0.00116994
0.00116938
0.00116884
0.00116831
0.0011678
0.0011673
0.00116682
0.00116635
0.00116589
0.00116544
0.00116501
0.00116459
0.00116418
0.00116378
0.00116339
0.00116301
0.00116264
0.00116228
0.00116193
0.00116159
0.00116126
0.00116094
0.00116062
0.00116032
0.00116002
0.00115973
0.00115945
0.00115917
0.00115891
0.00115865
0.0011584
0.00115816
0.00115792
0.00116994
0.00116938
0.00116884
0.00116831
0.0011678
0.0011673
0.00116682
0.00116635
0.00116589
0.00116544
0.00116501
0.00116459
0.00116418
0.00116378
0.00116339
0.00116301
0.00116264
0.00116228
0.00116193
0.00116159
0.00116126
0.00116093
0.00116062
0.00116031
0.00116002
0.00115973
0.00115944
0.00115917
0.0011589
0.00115864
0.00115839
0.00115815
0.00115791
0.00116994
0.00116938
0.00116884
0.00116831
0.0011678
0.0011673
0.00116682
0.00116635
0.00116589
0.00116544
0.00116501
0.00116459
0.00116417
0.00116377
0.00116339
0.00116301
0.00116264
0.00116228
0.00116193
0.00116159
0.00116126
0.00116093
0.00116062
0.00116031
0.00116001
0.00115972
0.00115944
0.00115916
0.0011589
0.00115863
0.00115838
0.00115814
0.0011579
0.00116994
0.00116938
0.00116884
0.00116831
0.0011678
0.0011673
0.00116682
0.00116635
0.00116589
0.00116544
0.00116501
0.00116459
0.00116418
0.00116378
0.00116339
0.00116301
0.00116264
0.00116228
0.00116193
0.00116159
0.00116126
0.00116093
0.00116062
0.00116031
0.00116001
0.00115972
0.00115944
0.00115916
0.00115889
0.00115863
0.00115837
0.00115813
0.00115789
0.00116994
0.00116938
0.00116884
0.00116831
0.0011678
0.0011673
0.00116682
0.00116635
0.00116589
0.00116544
0.00116501
0.00116459
0.00116418
0.00116378
0.00116339
0.00116301
0.00116264
0.00116228
0.00116193
0.00116159
0.00116126
0.00116093
0.00116062
0.00116031
0.00116001
0.00115972
0.00115943
0.00115915
0.00115888
0.00115862
0.00115836
0.00115811
0.00115787
0.00116994
0.00116938
0.00116884
0.00116831
0.0011678
0.00116731
0.00116682
0.00116635
0.0011659
0.00116545
0.00116502
0.0011646
0.00116419
0.00116379
0.0011634
0.00116302
0.00116265
0.00116229
0.00116194
0.00116159
0.00116126
0.00116093
0.00116061
0.0011603
0.00116
0.0011597
0.00115941
0.00115912
0.00115884
0.00115857
0.00115831
0.00115805
0.00115779
0.00116994
0.00116938
0.00116884
0.00116831
0.0011678
0.00116731
0.00116683
0.00116636
0.0011659
0.00116546
0.00116503
0.0011646
0.00116419
0.00116379
0.0011634
0.00116302
0.00116264
0.00116227
0.00116191
0.00116156
0.00116121
0.00116087
0.00116053
0.0011602
0.00115987
0.00115955
0.00115923
0.00115892
0.00115861
0.0011583
0.001158
0.0011577
0.0011574
0.00116994
0.00116938
0.00116884
0.00116833
0.00116782
0.00116733
0.00116685
0.00116639
0.00116593
0.00116548
0.00116503
0.0011646
0.00116416
0.00116373
0.00116331
0.00116289
0.00116246
0.00116204
0.00116162
0.00116119
0.00116077
0.00116034
0.00115991
0.00115947
0.00115903
0.00115859
0.00115815
0.0011577
0.00115725
0.0011568
0.00115634
0.00115588
0.00115542
0.00116994
0.00116939
0.00116886
0.00116835
0.00116784
0.00116733
0.00116683
0.00116632
0.0011658
0.00116528
0.00116473
0.00116417
0.00116358
0.00116297
0.00116233
0.00116166
0.00116096
0.00116024
0.00115948
0.0011587
0.00115789
0.00115706
0.0011562
0.00115531
0.00115441
0.00115349
0.00115254
0.00115158
0.00115061
0.00114962
0.00114862
0.00114761
0.00114659
0.00116995
0.0011694
0.00116886
0.00116828
0.00116765
0.00116694
0.00116612
0.00116519
0.00116413
0.00116293
0.00116161
0.00116015
0.00115857
0.00115686
0.00115504
0.00115311
0.00115108
0.00114897
0.00114677
0.0011445
0.00114217
0.00113979
0.00113736
0.0011349
0.0011324
0.00112989
0.00112736
0.00112481
0.00112227
0.00111972
0.00111718
0.00111465
0.00111214
0.00116996
0.00116916
0.00116786
0.00116595
0.00116342
0.00116028
0.00115654
0.00115224
0.00114744
0.00114218
0.00113653
0.00113057
0.00112435
0.00111793
0.00111136
0.00110468
0.00109794
0.00109117
0.0010844
0.00107766
0.00107097
0.00106435
0.00105781
0.00105137
0.00104503
0.00103881
0.00103271
0.00102674
0.0010209
0.0010152
0.00100963
0.0010042
0.000998912
0.00116831
0.00115867
0.00114499
0.00112842
0.00110966
0.00108943
0.00106837
0.00104701
0.00102573
0.0010048
0.000984398
0.000964657
0.000945643
0.000927393
0.000909919
0.000893218
0.000877273
0.000862061
0.000847554
0.000833721
0.000820532
0.000807954
0.000795955
0.000784505
0.000773575
0.000763137
0.000753163
0.000743629
0.00073451
0.000725785
0.000717431
0.000709429
0.000701757
0.00107567
0.000936199
0.00083562
0.000756939
0.000692183
0.000638472
0.0005936
0.000555738
0.000523448
0.000495627
0.000471427
0.000450195
0.000431424
0.000414717
0.000399756
0.000386286
0.000374102
0.000363032
0.000352936
0.000343696
0.000335211
0.000327396
0.00032018
0.000313498
0.000307298
0.00030153
0.000296154
0.000291134
0.000286436
0.000282032
0.000277897
0.000274008
0.000270344
0.000142979
0.000146644
0.000150174
0.000153551
0.000156773
0.000159846
0.000162776
0.000165567
0.000168225
0.000170755
0.000173162
0.000175451
0.000177626
0.000179693
0.000181656
0.00018352
0.000185288
0.000186967
0.000188559
0.000190069
0.0001915
0.000192857
0.000194143
0.000195362
0.000196517
0.000197611
0.000198647
0.000199628
0.000200557
0.000201437
0.000202269
0.000203057
0.000203804
9.03434e-05
0.000112565
0.000145363
0.0001897
0.000243545
0.000302627
0.000362523
0.000420781
0.000478339
0.000538468
0.000603985
0.000675305
0.000750771
0.000828413
0.000907191
0.000986976
0.0010679
0.00114978
0.00123188
0.0013134
0.00139325
0.00147013
0.0015424
0.00160802
0.00166461
0.00170961
0.00174036
0.00175424
0.00174866
0.00172116
0.00166941
0.00159132
0.00148534
0.00135106
0.00119074
0.00101251
0.000836358
0.000701775
0.000670582
0.000800127
0.00103735
0.00123894
0.0013769
0.00148222
0.00157029
0.00164477
0.00170649
0.00175629
0.00179548
0.00182567
0.00184854
0.00186568
0.00187848
0.00188814
0.00189563
0.00190175
0.00190716
0.00191235
0.00191775
0.00192366
0.00193033
0.00193793
0.00194657
0.00195628
0.00196707
0.00197887
0.00199157
0.00200503
0.00201911
0.00203365
0.00204848
0.00206343
0.00207822
0.00209247
0.00210555
0.00211663
0.00212457
0.00212804
0.00212561
0.00211584
0.00209745
0.00206947
0.00203134
0.00198302
0.00192503
0.00185849
0.00178511
0.00170717
0.00162741
0.0015488
0.00147431
0.00140649
0.0013471
0.00129687
0.00125561
0.00122248
0.00119646
0.0011764
0.00116187
0.00114743
7.67485e-05
7.91245e-05
8.33846e-05
9.12645e-05
0.000105347
0.000128649
0.000163702
0.000211357
0.000269902
0.000335333
0.000402968
0.00046951
0.000534124
0.000597925
0.000662517
0.000728764
0.000796465
0.000864752
0.000932703
0.000999663
0.00106516
0.0011285
0.00118843
0.00124316
0.00129043
0.00132776
0.00135254
0.00136212
0.00135387
0.00132529
0.00127422
0.00119918
0.00110015
0.000980017
0.000847332
0.00072064
0.000633391
0.000634407
0.000762417
0.000971166
0.00115713
0.00129443
0.00140243
0.0014934
0.00157114
0.00163674
0.00169094
0.00173473
0.00176932
0.00179611
0.00181654
0.00183193
0.00184347
0.00185218
0.00185892
0.00186437
0.00186912
0.00187362
0.00187827
0.00188335
0.00188912
0.00189577
0.00190343
0.00191219
0.00192209
0.00193312
0.0019452
0.00195825
0.00197212
0.00198668
0.00200178
0.00201721
0.00203271
0.00204788
0.00206209
0.00207448
0.00208393
0.0020891
0.00208854
0.00208081
0.00206465
0.00203908
0.00200355
0.00195799
0.00190288
0.00183929
0.00176883
0.00169371
0.00161655
0.00154026
0.00146776
0.00140158
0.00134352
0.0012944
0.00125406
0.00122172
0.00119633
0.00117674
0.0011625
0.00114829
0.000125516
0.000123645
0.000122396
0.000121363
0.000119573
0.000116012
0.000111841
0.000111716
0.000120905
0.000142642
0.000178029
0.000226204
0.000284452
0.000348767
0.00041494
0.000479716
0.000541432
0.000599852
0.000655472
0.000709362
0.000761874
0.000812384
0.000859581
0.000901816
0.000937262
0.000963927
0.000979658
0.000982203
0.000969388
0.000939436
0.000891469
0.000826358
0.00074812
0.000666072
0.000597681
0.000571052
0.000621077
0.000760594
0.000940926
0.00110126
0.00122952
0.00133516
0.00142532
0.00150318
0.00157007
0.00162667
0.00167366
0.00171186
0.00174229
0.00176606
0.00178434
0.00179822
0.0018087
0.00181665
0.00182277
0.0018277
0.00183192
0.00183585
0.00183985
0.00184419
0.00184912
0.00185483
0.00186149
0.00186922
0.00187809
0.00188813
0.00189934
0.00191164
0.00192496
0.00193918
0.00195416
0.00196973
0.00198562
0.00200143
0.00201656
0.00203014
0.00204104
0.00204792
0.00204932
0.00204381
0.00203011
0.00200725
0.00197465
0.00193221
0.00188036
0.00182007
0.00175288
0.00168085
0.00160651
0.00153269
0.00146224
0.00139769
0.0013409
0.00129275
0.00125318
0.00122146
0.00119655
0.00117729
0.00116325
0.00114914
0.000297463
0.000292
0.000287754
0.000285964
0.000288637
0.000298139
0.000313998
0.000323955
0.000303671
0.00025259
0.00020213
0.00017252
0.00016497
0.000175414
0.000200034
0.000235614
0.000279061
0.000327301
0.000377302
0.000426104
0.000471658
0.000512869
0.000549203
0.000580187
0.000605089
0.000622833
0.000632134
0.000631783
0.000621054
0.000600272
0.000571621
0.000540285
0.00051595
0.000514224
0.000555416
0.000653327
0.000794126
0.000941739
0.00107352
0.00118652
0.00128399
0.00136905
0.00144372
0.00150912
0.0015658
0.00161417
0.00165466
0.00168789
0.00171463
0.00173575
0.00175217
0.00176477
0.00177437
0.00178169
0.00178735
0.00179186
0.00179567
0.00179915
0.00180261
0.00180631
0.00181049
0.00181533
0.00182102
0.00182769
0.00183545
0.00184437
0.00185449
0.00186579
0.00187824
0.00189177
0.00190627
0.0019216
0.00193752
0.00195366
0.00196943
0.00198398
0.00199619
0.00200473
0.00200812
0.00200492
0.00199384
0.0019739
0.00194449
0.00190546
0.00185718
0.00180051
0.00173687
0.00166821
0.00159693
0.00152574
0.00145744
0.00139456
0.00133899
0.00129173
0.00125283
0.0012216
0.00119705
0.00117802
0.00116409
0.00115001
0.000496966
0.000488452
0.000480292
0.000472882
0.00046723
0.000465612
0.000472449
0.000494722
0.000540784
0.000613128
0.000677759
0.000656528
0.00054501
0.000421095
0.000330134
0.000275488
0.000248178
0.000239914
0.000244231
0.000257149
0.000275795
0.000297658
0.000320511
0.00034251
0.000362286
0.000379003
0.000392445
0.00040319
0.000412952
0.000425088
0.000445149
0.000480939
0.00054069
0.000627926
0.000736241
0.000852404
0.000965511
0.00107022
0.00116485
0.0012497
0.00132586
0.0013943
0.00145564
0.00151015
0.00155796
0.00159917
0.00163405
0.00166299
0.00168655
0.00170539
0.00172022
0.00173174
0.00174062
0.00174745
0.00175274
0.00175695
0.00176046
0.00176359
0.00176661
0.00176978
0.00177331
0.00177737
0.00178215
0.0017878
0.00179444
0.00180217
0.00181108
0.00182119
0.00183252
0.00184505
0.00185872
0.00187343
0.001889
0.0019051
0.00192119
0.00193644
0.00194976
0.00195983
0.00196517
0.00196432
0.00195597
0.00193911
0.0019131
0.00187774
0.00183328
0.00178052
0.00172071
0.00165567
0.00158765
0.00151926
0.00145323
0.00139207
0.00133772
0.00129129
0.00125295
0.00122211
0.00119781
0.00117892
0.00116504
0.0011509
0.000682514
0.000672374
0.000662246
0.000652074
0.000641894
0.000632013
0.000623392
0.000618273
0.000620669
0.000636333
0.000670361
0.000721013
0.000775286
0.000807511
0.000789555
0.000718724
0.000623556
0.000531646
0.000464928
0.000421984
0.000396036
0.000382484
0.000378445
0.00038208
0.000392276
0.000408556
0.000431092
0.000460704
0.000498738
0.000546682
0.000605482
0.000674785
0.000752625
0.000835857
0.000920945
0.00100468
0.00108474
0.00115995
0.00123
0.00129498
0.00135509
0.00141041
0.00146087
0.00150635
0.00154672
0.00158193
0.00161207
0.00163738
0.00165826
0.00167517
0.00168867
0.0016993
0.0017076
0.00171404
0.00171907
0.00172307
0.00172635
0.00172922
0.00173192
0.00173466
0.00173764
0.00174103
0.001745
0.0017497
0.00175526
0.00176181
0.00176945
0.00177826
0.00178829
0.00179958
0.00181212
0.00182587
0.00184072
0.00185639
0.00187242
0.00188804
0.00190222
0.00191362
0.0019208
0.00192226
0.00191668
0.001903
0.00188055
0.00184903
0.00180864
0.00176001
0.00170428
0.00164308
0.00157854
0.00151313
0.00144948
0.0013901
0.00133699
0.00129136
0.0012535
0.00122294
0.0011988
0.00117997
0.00116608
0.00115182
0.000838939
0.000828895
0.000818754
0.000808447
0.000797912
0.000787109
0.000776078
0.000765102
0.000755002
0.0007475
0.000745256
0.000750867
0.000765396
0.00078689
0.000809044
0.000822065
0.000817593
0.000790578
0.000754549
0.000718413
0.000687255
0.000663517
0.000648164
0.000641449
0.000643331
0.000653673
0.000672308
0.000699014
0.000733435
0.000774977
0.000822733
0.000875486
0.000931795
0.000990168
0.00104923
0.00110787
0.00116524
0.0012208
0.00127416
0.00132505
0.00137321
0.00141834
0.00146014
0.00149829
0.00153257
0.00156282
0.00158904
0.00161135
0.00162999
0.00164531
0.00165771
0.00166761
0.00167545
0.0016816
0.00168644
0.00169029
0.00169344
0.00169613
0.00169858
0.00170098
0.00170352
0.00170634
0.00170961
0.00171346
0.00171803
0.00172346
0.00172986
0.00173733
0.00174598
0.00175586
0.00176704
0.00177954
0.00179332
0.00180819
0.00182378
0.00183941
0.0018541
0.00186658
0.00187539
0.00187906
0.00187621
0.00186575
0.00184693
0.00181941
0.00178324
0.00173893
0.00168748
0.00163034
0.00156946
0.00150718
0.00144605
0.00138854
0.0013367
0.00129184
0.00125441
0.00122406
0.0012
0.00118116
0.00116719
0.00115276
0.00095886
0.000950165
0.00094132
0.000932287
0.000923027
0.000913509
0.000903718
0.00089367
0.000883462
0.000873388
0.000864123
0.000856786
0.000852668
0.0008527
0.000856835
0.000863614
0.000870377
0.000873759
0.000872909
0.000868448
0.000861997
0.000855512
0.000850805
0.000849324
0.0008521
0.000859786
0.000872715
0.00089095
0.000914323
0.000942459
0.000974811
0.00101071
0.0010494
0.00109014
0.00113221
0.00117499
0.00121791
0.00126052
0.00130238
0.00134309
0.00138226
0.00141951
0.00145444
0.00148672
0.00151608
0.0015423
0.00156532
0.00158517
0.00160198
0.00161599
0.0016275
0.00163682
0.00164429
0.00165023
0.00165495
0.00165871
0.00166177
0.00166434
0.00166662
0.00166877
0.00167096
0.00167332
0.00167599
0.00167911
0.00168281
0.00168722
0.00169245
0.00169863
0.00170588
0.00171429
0.00172397
0.00173502
0.00174745
0.00176118
0.00177595
0.00179119
0.00180602
0.00181925
0.00182945
0.00183513
0.0018349
0.0018276
0.00181243
0.00178894
0.0017571
0.00171726
0.00167023
0.00161731
0.00156026
0.00150128
0.00144279
0.00138724
0.00133672
0.00129264
0.0012556
0.00122541
0.00120136
0.00118245
0.00116837
0.00115372
0.00104282
0.0010361
0.0010292
0.00102213
0.00101485
0.00100736
0.00099966
0.000991765
0.000983707
0.00097555
0.000967435
0.000959652
0.000952672
0.000947101
0.0009435
0.000942152
0.000942884
0.000945006
0.000947801
0.000950756
0.000953694
0.000956786
0.000960471
0.000965326
0.000971948
0.000980865
0.000992482
0.00100706
0.00102469
0.00104535
0.00106885
0.00109494
0.00112328
0.00115349
0.00118516
0.00121791
0.00125133
0.00128506
0.00131869
0.00135186
0.00138419
0.0014153
0.00144484
0.00147245
0.00149786
0.00152084
0.00154127
0.00155911
0.00157444
0.00158739
0.00159818
0.00160704
0.00161424
0.00162003
0.00162467
0.00162839
0.00163141
0.00163391
0.00163607
0.00163804
0.00163996
0.00164195
0.00164414
0.00164665
0.0016496
0.00165311
0.0016573
0.00166228
0.00166819
0.00167515
0.0016833
0.00169277
0.00170366
0.00171599
0.00172961
0.00174409
0.00175867
0.00177227
0.00178352
0.00179095
0.00179312
0.00178885
0.00177725
0.00175779
0.00173029
0.00169498
0.00165249
0.00160392
0.00155084
0.00149528
0.00143956
0.00138607
0.00133693
0.00129366
0.00125701
0.00122693
0.00120284
0.00118381
0.00116959
0.00115468
0.0010965
0.00109182
0.00108697
0.00108195
0.00107677
0.00107142
0.00106592
0.00106028
0.00105453
0.00104873
0.00104291
0.00103718
0.00103169
0.00102666
0.00102238
0.00101917
0.00101724
0.00101669
0.00101746
0.00101945
0.00102255
0.00102668
0.00103185
0.00103815
0.00104575
0.00105482
0.00106557
0.00107814
0.00109264
0.00110913
0.00112757
0.00114788
0.00116992
0.00119351
0.00121842
0.00124441
0.00127121
0.00129854
0.0013261
0.00135359
0.00138067
0.00140702
0.00143231
0.00145623
0.00147849
0.00149887
0.00151722
0.00153345
0.00154757
0.00155967
0.00156988
0.00157838
0.00158537
0.00159107
0.00159568
0.00159939
0.0016024
0.00160488
0.00160697
0.00160881
0.00161052
0.00161223
0.00161403
0.00161605
0.00161837
0.00162111
0.00162439
0.00162832
0.00163301
0.00163861
0.00164527
0.00165315
0.00166241
0.00167316
0.00168536
0.00169875
0.00171272
0.0017263
0.00173822
0.00174705
0.00175135
0.00174988
0.00174169
0.00172613
0.00170294
0.00167215
0.00163424
0.00159008
0.00154107
0.00148905
0.00143622
0.0013849
0.00133721
0.0012948
0.00125853
0.00122855
0.00120439
0.00118522
0.00117083
0.00115563
0.0011278
0.00112482
0.00112171
0.00111847
0.0011151
0.00111162
0.00110803
0.00110436
0.00110063
0.00109687
0.00109313
0.00108946
0.00108592
0.0010826
0.00107964
0.00107718
0.00107539
0.00107442
0.0010744
0.00107541
0.00107749
0.00108067
0.00108497
0.00109042
0.00109706
0.00110495
0.00111415
0.00112471
0.00113671
0.00115016
0.00116507
0.0011814
0.00119911
0.00121809
0.00123823
0.00125937
0.00128134
0.00130394
0.00132693
0.00135009
0.00137314
0.00139579
0.00141776
0.00143876
0.00145852
0.00147682
0.00149348
0.00150841
0.00152155
0.00153296
0.0015427
0.00155092
0.00155776
0.0015634
0.001568
0.00157173
0.00157477
0.00157724
0.00157929
0.00158105
0.00158262
0.00158411
0.00158562
0.00158723
0.00158905
0.00159116
0.00159368
0.00159669
0.00160032
0.0016047
0.00160998
0.00161634
0.00162399
0.00163308
0.00164372
0.00165576
0.00166878
0.00168197
0.00169417
0.00170402
0.0017101
0.00171112
0.00170608
0.00169424
0.0016752
0.00164885
0.00161548
0.00157576
0.00153087
0.00148248
0.00143264
0.00138358
0.00133745
0.00129594
0.0012601
0.00123021
0.00120597
0.00118662
0.00117205
0.00115656
0.00114437
0.00114261
0.00114076
0.00113882
0.00113681
0.00113472
0.00113258
0.00113041
0.00112821
0.00112602
0.00112387
0.00112179
0.00111984
0.00111804
0.00111648
0.00111522
0.00111435
0.00111398
0.00111422
0.00111514
0.00111685
0.00111941
0.00112287
0.0011273
0.00113273
0.00113921
0.00114677
0.00115545
0.00116528
0.00117628
0.00118846
0.00120181
0.0012163
0.00123189
0.0012485
0.00126605
0.00128442
0.00130346
0.00132301
0.00134286
0.0013628
0.00138259
0.00140196
0.00142065
0.00143841
0.00145503
0.00147033
0.00148418
0.00149653
0.00150736
0.00151673
0.00152472
0.00153145
0.00153705
0.00154167
0.00154544
0.00154851
0.00155101
0.00155305
0.00155477
0.00155624
0.00155757
0.00155884
0.00156015
0.00156156
0.00156317
0.00156506
0.00156732
0.00157005
0.00157338
0.00157744
0.00158242
0.00158854
0.00159602
0.00160502
0.00161557
0.00162739
0.00163985
0.00165196
0.00166243
0.00166989
0.00167304
0.00167081
0.0016624
0.00164728
0.00162521
0.00159627
0.00156094
0.00152019
0.00147548
0.0014287
0.00138201
0.00133751
0.00129699
0.00126162
0.00123185
0.00120753
0.001188
0.00117324
0.00115744
0.00115231
0.00115131
0.00115025
0.00114915
0.00114802
0.00114685
0.00114567
0.00114448
0.00114331
0.00114218
0.00114111
0.00114013
0.00113926
0.00113854
0.00113801
0.00113771
0.00113769
0.00113801
0.00113875
0.00113996
0.00114172
0.00114409
0.00114713
0.00115091
0.00115547
0.00116088
0.00116715
0.00117435
0.00118249
0.0011916
0.00120171
0.00121281
0.00122491
0.00123797
0.00125198
0.00126686
0.00128253
0.0012989
0.00131583
0.00133315
0.00135069
0.00136823
0.00138555
0.0014024
0.00141855
0.00143381
0.00144798
0.00146094
0.00147261
0.00148296
0.00149201
0.00149982
0.00150646
0.00151204
0.00151668
0.0015205
0.00152362
0.00152616
0.00152822
0.00152992
0.00153133
0.00153255
0.00153365
0.00153471
0.00153581
0.00153702
0.00153841
0.00154006
0.00154206
0.00154451
0.00154754
0.00155132
0.00155607
0.00156204
0.00156946
0.00157846
0.00158893
0.00160042
0.00161209
0.0016228
0.00163123
0.0016361
0.0016363
0.00163096
0.00161946
0.00160141
0.00157672
0.00154567
0.00150901
0.00146798
0.00142432
0.00138007
0.0013373
0.00129786
0.00126302
0.0012334
0.00120901
0.00118931
0.00117435
0.00115825
0.00115575