/*--------------------------------*- C++ -*----------------------------------*\
| =========                 |                                                 |
| \\      /  F ield         | OpenFOAM: The Open Source CFD Toolbox           |
|  \\    /   O peration     | Version:  2.1.1                                 |
|   \\  /    A nd           | Web:      www.OpenFOAM.org                      |
|    \\/     M anipulation  |                                                 |
\*---------------------------------------------------------------------------*/
FoamFile
{
    version     2.0;
    format      ascii;
    class       volScalarField;
    location    "0.065";
    object      p;
}
// * * * * * * * * * * * * * * * * * * * * * * * * * * * * * * * * * * * * * //

dimensions      [0 2 -2 0 0 0 0];

internalField   nonuniform List<scalar> 
6820
(
-11.1455
-12.9917
-13.5663
-13.6935
-13.7999
-13.8781
-13.9314
-13.9765
-14.0173
-14.0543
-14.0885
-14.1203
-14.15
-14.1777
-14.2035
-14.2275
-14.2497
-14.2701
-14.2888
-14.3056
-14.3206
-14.3336
-14.3444
-14.3529
-14.3587
-14.3614
-14.3602
-14.3544
-14.3423
-14.3219
-14.2891
-14.2341
-14.1546
-15.0981
-14.5634
-14.1404
-13.9499
-13.9246
-13.9349
-13.954
-13.9805
-14.0111
-14.0426
-14.0739
-14.1045
-14.134
-14.162
-14.1885
-14.2133
-14.2364
-14.2578
-14.2774
-14.2952
-14.3111
-14.3251
-14.3369
-14.3465
-14.3535
-14.3577
-14.3584
-14.3553
-14.3474
-14.3356
-14.3168
-14.3132
-14.3065
-13.4556
-13.1517
-13.438
-13.6826
-13.7867
-13.8612
-13.919
-13.967
-14.0095
-14.0477
-14.0826
-14.1149
-14.1449
-14.1727
-14.1986
-14.2226
-14.2449
-14.2654
-14.2842
-14.3013
-14.3167
-14.3302
-14.3418
-14.3513
-14.3585
-14.3632
-14.3649
-14.3634
-14.3582
-14.35
-14.3384
-14.3299
-14.3195
-13.9626
-13.9969
-13.9936
-13.9339
-13.9255
-13.9451
-13.9703
-13.9978
-14.0271
-14.0566
-14.0856
-14.1139
-14.1411
-14.1671
-14.1918
-14.2152
-14.2371
-14.2576
-14.2766
-14.2941
-14.3099
-14.3241
-14.3365
-14.347
-14.3555
-14.3617
-14.3655
-14.3668
-14.3655
-14.3626
-14.3578
-14.3583
-14.3578
-13.8074
-13.7073
-13.7512
-13.8165
-13.8687
-13.9144
-13.954
-13.99
-14.0243
-14.0569
-14.0877
-14.1171
-14.1449
-14.1712
-14.196
-14.2193
-14.2411
-14.2614
-14.2803
-14.2977
-14.3135
-14.3279
-14.3405
-14.3515
-14.3607
-14.368
-14.3734
-14.3769
-14.3786
-14.3794
-14.3796
-14.3828
-14.3868
-13.8625
-13.8457
-13.8705
-13.8931
-13.9147
-13.9432
-13.9736
-14.004
-14.0342
-14.0638
-14.0925
-14.1201
-14.1466
-14.1719
-14.1959
-14.2186
-14.2401
-14.2602
-14.279
-14.2965
-14.3126
-14.3274
-14.3407
-14.3525
-14.3628
-14.3717
-14.379
-14.385
-14.3899
-14.3945
-14.3992
-14.4062
-14.4144
-13.8609
-13.8396
-13.8552
-13.8834
-13.9128
-13.9449
-13.9767
-14.0075
-14.0375
-14.0668
-14.0951
-14.1223
-14.1485
-14.1734
-14.1972
-14.2197
-14.2411
-14.2612
-14.2801
-14.2978
-14.3142
-14.3294
-14.3433
-14.356
-14.3675
-14.3778
-14.387
-14.3954
-14.4032
-14.4111
-14.4195
-14.4298
-14.4417
-13.8752
-13.8673
-13.8823
-13.9063
-13.9309
-13.9583
-13.9868
-14.0153
-14.0437
-14.0716
-14.0988
-14.1251
-14.1505
-14.1748
-14.1982
-14.2204
-14.2415
-14.2615
-14.2805
-14.2983
-14.3151
-14.3308
-14.3455
-14.3591
-14.3718
-14.3836
-14.3947
-14.4054
-14.4159
-14.4269
-14.4388
-14.4524
-14.4679
-13.8883
-13.8843
-13.8962
-13.9172
-13.9405
-13.9665
-13.9939
-14.0214
-14.0487
-14.0757
-14.1021
-14.1277
-14.1525
-14.1763
-14.1993
-14.2213
-14.2423
-14.2623
-14.2813
-14.2994
-14.3166
-14.3328
-14.3482
-14.3628
-14.3767
-14.39
-14.4029
-14.4158
-14.4288
-14.4426
-14.4576
-14.4744
-14.4933
-13.9021
-13.9014
-13.9124
-13.9314
-13.9529
-13.9769
-14.0024
-14.0283
-14.0543
-14.0802
-14.1056
-14.1305
-14.1546
-14.178
-14.2006
-14.2223
-14.2431
-14.2631
-14.2822
-14.3006
-14.3181
-14.3349
-14.351
-14.3666
-14.3816
-14.3964
-14.4111
-14.426
-14.4414
-14.4577
-14.4755
-14.4952
-14.5172
-13.9159
-13.9168
-13.9269
-13.9439
-13.9639
-13.9862
-14.0102
-14.0349
-14.0598
-14.0847
-14.1092
-14.1333
-14.1569
-14.1798
-14.202
-14.2234
-14.2441
-14.2641
-14.2833
-14.3019
-14.3198
-14.3372
-14.354
-14.3705
-14.3867
-14.4029
-14.4192
-14.4359
-14.4535
-14.4721
-14.4924
-14.5146
-14.5394
-13.9295
-13.9313
-13.9408
-13.9563
-13.9749
-13.9957
-14.0182
-14.0416
-14.0654
-14.0892
-14.1129
-14.1363
-14.1593
-14.1817
-14.2035
-14.2247
-14.2453
-14.2652
-14.2846
-14.3034
-14.3217
-14.3396
-14.3571
-14.3745
-14.3918
-14.4092
-14.427
-14.4454
-14.4648
-14.4855
-14.5079
-14.5324
-14.5595
-13.9426
-13.945
-13.9539
-13.9681
-13.9853
-14.0048
-14.026
-14.0482
-14.0709
-14.0938
-14.1167
-14.1394
-14.1617
-14.1837
-14.2051
-14.2261
-14.2465
-14.2664
-14.2859
-14.3049
-14.3236
-14.342
-14.3602
-14.3784
-14.3966
-14.4152
-14.4343
-14.4543
-14.4753
-14.4977
-14.522
-14.5483
-14.5773
-13.9553
-13.9578
-13.9663
-13.9794
-13.9954
-14.0137
-14.0336
-14.0547
-14.0764
-14.0984
-14.1205
-14.1425
-14.1642
-14.1857
-14.2068
-14.2275
-14.2478
-14.2677
-14.2873
-14.3065
-14.3255
-14.3443
-14.3631
-14.3821
-14.4012
-14.4208
-14.4411
-14.4623
-14.4847
-14.5086
-14.5343
-14.5621
-14.5925
-13.9674
-13.9699
-13.9779
-13.9901
-14.005
-14.0222
-14.041
-14.061
-14.0817
-14.1029
-14.1242
-14.1455
-14.1667
-14.1878
-14.2085
-14.229
-14.2491
-14.269
-14.2886
-14.308
-14.3273
-14.3466
-14.3659
-14.3854
-14.4054
-14.4258
-14.4471
-14.4694
-14.4929
-14.5179
-14.5447
-14.5736
-14.605
-13.9788
-13.9813
-13.9889
-14.0002
-14.0142
-14.0303
-14.0481
-14.0671
-14.0869
-14.1073
-14.1279
-14.1486
-14.1692
-14.1898
-14.2102
-14.2304
-14.2504
-14.2702
-14.2899
-14.3094
-14.329
-14.3486
-14.3683
-14.3884
-14.409
-14.4302
-14.4522
-14.4753
-14.4996
-14.5255
-14.5531
-14.5827
-14.6147
-13.9896
-13.992
-13.9991
-14.0097
-14.0228
-14.038
-14.0549
-14.073
-14.092
-14.1115
-14.1314
-14.1515
-14.1717
-14.1918
-14.2119
-14.2318
-14.2516
-14.2714
-14.291
-14.3107
-14.3304
-14.3502
-14.3703
-14.3908
-14.4119
-14.4336
-14.4562
-14.4799
-14.5048
-14.5312
-14.5593
-14.5893
-14.6214
-13.9997
-14.002
-14.0087
-14.0187
-14.031
-14.0453
-14.0614
-14.0786
-14.0968
-14.1156
-14.1348
-14.1543
-14.174
-14.1937
-14.2134
-14.2331
-14.2527
-14.2723
-14.292
-14.3116
-14.3315
-14.3515
-14.3718
-14.3926
-14.414
-14.4361
-14.4591
-14.4831
-14.5083
-14.535
-14.5632
-14.5932
-14.6251
-14.009
-14.0112
-14.0176
-14.0269
-14.0386
-14.0522
-14.0674
-14.0839
-14.1013
-14.1194
-14.138
-14.157
-14.1761
-14.1954
-14.2148
-14.2342
-14.2536
-14.2731
-14.2926
-14.3123
-14.3321
-14.3523
-14.3727
-14.3937
-14.4153
-14.4375
-14.4607
-14.4848
-14.5101
-14.5368
-14.5648
-14.5945
-14.6259
-14.0176
-14.0197
-14.0257
-14.0346
-14.0456
-14.0585
-14.073
-14.0887
-14.1055
-14.1229
-14.141
-14.1594
-14.1781
-14.1969
-14.2159
-14.235
-14.2542
-14.2735
-14.2929
-14.3125
-14.3323
-14.3525
-14.373
-14.3939
-14.4155
-14.4378
-14.4609
-14.485
-14.5101
-14.5364
-14.5641
-14.5931
-14.6237
-14.0255
-14.0274
-14.0331
-14.0415
-14.0519
-14.0642
-14.0781
-14.0932
-14.1093
-14.1262
-14.1436
-14.1615
-14.1797
-14.1982
-14.2168
-14.2356
-14.2546
-14.2736
-14.2929
-14.3123
-14.332
-14.352
-14.3724
-14.3933
-14.4147
-14.4369
-14.4598
-14.4835
-14.5083
-14.534
-14.561
-14.5891
-14.6186
-14.0325
-14.0344
-14.0398
-14.0477
-14.0577
-14.0694
-14.0826
-14.0971
-14.1127
-14.129
-14.1459
-14.1633
-14.1811
-14.1991
-14.2174
-14.2359
-14.2545
-14.2734
-14.2923
-14.3116
-14.3311
-14.3509
-14.371
-14.3917
-14.4129
-14.4347
-14.4572
-14.4804
-14.5045
-14.5296
-14.5556
-14.5827
-14.6108
-14.0387
-14.0405
-14.0457
-14.0532
-14.0627
-14.0739
-14.0866
-14.1006
-14.1156
-14.1314
-14.1478
-14.1648
-14.1821
-14.1998
-14.2177
-14.2358
-14.2541
-14.2726
-14.2914
-14.3103
-14.3295
-14.349
-14.3689
-14.3891
-14.4099
-14.4312
-14.4531
-14.4757
-14.499
-14.5231
-14.548
-14.5738
-14.6004
-14.0441
-14.0458
-14.0507
-14.0579
-14.067
-14.0777
-14.09
-14.1034
-14.1179
-14.1332
-14.1492
-14.1657
-14.1827
-14.1999
-14.2175
-14.2352
-14.2532
-14.2714
-14.2897
-14.3083
-14.3272
-14.3463
-14.3657
-14.3855
-14.4057
-14.4264
-14.4476
-14.4694
-14.4917
-14.5147
-14.5383
-14.5626
-14.5876
-14.0486
-14.0502
-14.0549
-14.0619
-14.0705
-14.0809
-14.0927
-14.1058
-14.1199
-14.1348
-14.1503
-14.1664
-14.1829
-14.1998
-14.217
-14.2344
-14.252
-14.2697
-14.2877
-14.3059
-14.3243
-14.3429
-14.3618
-14.381
-14.4006
-14.4205
-14.4408
-14.4616
-14.4828
-14.5045
-14.5267
-14.5494
-14.5725
-14.0522
-14.0537
-14.0582
-14.0648
-14.0731
-14.0831
-14.0945
-14.1071
-14.1208
-14.1353
-14.1505
-14.1662
-14.1823
-14.1988
-14.2156
-14.2326
-14.2499
-14.2672
-14.2848
-14.3025
-14.3204
-14.3385
-14.3568
-14.3753
-14.3941
-14.4132
-14.4325
-14.4522
-14.4722
-14.4925
-14.5132
-14.5341
-14.5554
-14.0548
-14.0563
-14.0607
-14.0671
-14.0753
-14.085
-14.0962
-14.1085
-14.1219
-14.1361
-14.1508
-14.1662
-14.182
-14.1981
-14.2145
-14.2311
-14.2478
-14.2647
-14.2818
-14.299
-14.3163
-14.3337
-14.3513
-14.3691
-14.387
-14.405
-14.4233
-14.4418
-14.4604
-14.4792
-14.4983
-14.5174
-14.5367
-14.0564
-14.0577
-14.0616
-14.0676
-14.0753
-14.0846
-14.0953
-14.1073
-14.1204
-14.1344
-14.149
-14.1641
-14.1796
-14.1954
-14.2115
-14.2278
-14.2442
-14.2607
-14.2773
-14.294
-14.3107
-14.3275
-14.3444
-14.3613
-14.3783
-14.3954
-14.4125
-14.4297
-14.447
-14.4643
-14.4816
-14.499
-14.5163
-14.0572
-14.0589
-14.0631
-14.0693
-14.0771
-14.0864
-14.0971
-14.109
-14.1217
-14.1352
-14.1494
-14.1641
-14.1792
-14.1946
-14.2102
-14.226
-14.2418
-14.2578
-14.2738
-14.2898
-14.3058
-14.3218
-14.3378
-14.3538
-14.3697
-14.3856
-14.4015
-14.4174
-14.4331
-14.4488
-14.4644
-14.4798
-14.4951
-14.0559
-14.0565
-14.0595
-14.0646
-14.0718
-14.0807
-14.0912
-14.103
-14.1158
-14.1295
-14.1438
-14.1586
-14.1737
-14.1891
-14.2046
-14.2202
-14.2358
-14.2515
-14.2671
-14.2827
-14.2981
-14.3135
-14.3288
-14.344
-14.359
-14.3739
-14.3886
-14.4032
-14.4175
-14.4316
-14.4455
-14.4591
-14.4724
-14.0563
-14.059
-14.0637
-14.0698
-14.0773
-14.0862
-14.0965
-14.1079
-14.1202
-14.1332
-14.1468
-14.1609
-14.1753
-14.1899
-14.2047
-14.2196
-14.2345
-14.2493
-14.2641
-14.2788
-14.2933
-14.3078
-14.322
-14.336
-14.3499
-14.3635
-14.3768
-14.3899
-14.4027
-14.4151
-14.4272
-14.4389
-14.4502
-14.0485
-14.0463
-14.0468
-14.0508
-14.0578
-14.0672
-14.0783
-14.0909
-14.1044
-14.1186
-14.1333
-14.1484
-14.1636
-14.1789
-14.1942
-14.2095
-14.2246
-14.2395
-14.2543
-14.2688
-14.2831
-14.2971
-14.3108
-14.3242
-14.3372
-14.3499
-14.3622
-14.3741
-14.3856
-14.3966
-14.4072
-14.4172
-14.4267
-14.0576
-14.0643
-14.0701
-14.0753
-14.0813
-14.0888
-14.0979
-14.1083
-14.1197
-14.1319
-14.1446
-14.1579
-14.1714
-14.1851
-14.1989
-14.2128
-14.2265
-14.2402
-14.2537
-14.2669
-14.28
-14.2927
-14.3051
-14.3172
-14.3288
-14.3401
-14.3509
-14.3613
-14.3711
-14.3804
-14.3892
-14.3973
-14.4049
-14.0253
-14.0116
-14.0066
-14.0123
-14.0228
-14.0358
-14.0505
-14.0661
-14.0823
-14.0988
-14.1154
-14.1318
-14.1481
-14.1641
-14.1799
-14.1953
-14.2103
-14.225
-14.2392
-14.253
-14.2663
-14.2791
-14.2914
-14.3032
-14.3145
-14.3252
-14.3353
-14.3448
-14.3536
-14.3618
-14.3693
-14.3761
-14.3821
-14.0803
-14.1009
-14.1058
-14.1016
-14.0989
-14.1013
-14.1069
-14.1145
-14.1235
-14.1338
-14.1449
-14.1567
-14.1689
-14.1813
-14.1939
-14.2065
-14.2189
-14.2313
-14.2434
-14.2552
-14.2666
-14.2777
-14.2883
-14.2984
-14.3081
-14.3171
-14.3256
-14.3335
-14.3406
-14.3471
-14.3529
-14.3579
-14.3622
-13.9574
-13.9078
-13.8959
-13.9216
-13.9507
-13.9756
-13.9999
-14.0237
-14.0464
-14.068
-14.0886
-14.1083
-14.127
-14.145
-14.1621
-14.1784
-14.194
-14.2089
-14.2231
-14.2366
-14.2493
-14.2614
-14.2727
-14.2833
-14.2932
-14.3022
-14.3105
-14.318
-14.3247
-14.3305
-14.3354
-14.3395
-14.3426
-14.2064
-14.2414
-14.2109
-14.1689
-14.1405
-14.1294
-14.1269
-14.1282
-14.1325
-14.1393
-14.1476
-14.1571
-14.1673
-14.178
-14.189
-14.2
-14.2111
-14.2221
-14.2328
-14.2432
-14.2532
-14.2627
-14.2718
-14.2803
-14.2882
-14.2954
-14.302
-14.3078
-14.3129
-14.3171
-14.3206
-14.3231
-14.3248
-13.7142
-13.5945
-13.6569
-13.7585
-13.8328
-13.8854
-13.9297
-13.9684
-14.0023
-14.0323
-14.0592
-14.0836
-14.106
-14.1267
-14.1458
-14.1636
-14.1802
-14.1957
-14.2102
-14.2237
-14.2362
-14.2477
-14.2584
-14.2681
-14.2769
-14.2847
-14.2916
-14.2976
-14.3026
-14.3065
-14.3095
-14.3115
-14.3124
-14.929
-14.5902
-14.3266
-14.21
-14.16
-14.1351
-14.1205
-14.1148
-14.1155
-14.1201
-14.1273
-14.1363
-14.1463
-14.1571
-14.1682
-14.1795
-14.1907
-14.2017
-14.2125
-14.2229
-14.2328
-14.2421
-14.2509
-14.259
-14.2664
-14.273
-14.2789
-14.2839
-14.2881
-14.2913
-14.2936
-14.295
-14.2953
-12.4255
-13.1322
-13.537
-13.6896
-13.7947
-13.8775
-13.9374
-13.9829
-14.02
-14.0509
-14.0773
-14.1004
-14.1211
-14.1399
-14.1571
-14.173
-14.1878
-14.2015
-14.2142
-14.226
-14.2369
-14.2468
-14.2559
-14.264
-14.2712
-14.2774
-14.2827
-14.287
-14.2902
-14.2925
-14.2937
-14.2938
-14.2928
-13.9542
-13.9887
-13.9976
-13.9877
-14.016
-14.1279
-14.3522
-14.6887
-15.123
-15.6319
-16.1934
-16.7856
-17.3869
-17.9778
-18.5415
-19.0657
-19.5426
-19.9694
-20.3451
-20.6712
-20.9497
-21.1829
-21.3724
-21.5196
-21.6249
-21.6877
-21.7062
-21.6772
-21.5956
-21.455
-21.2467
-20.9605
-20.5839
-20.1029
-19.5022
-18.7663
-17.8812
-16.8383
-15.639
-14.2946
-12.8335
-11.3049
-9.76187
-8.24828
-6.80592
-5.47363
-4.27994
-3.23995
-2.35614
-1.6213
-1.02217
-0.542665
-0.165993
0.123942
0.341853
0.500761
0.611941
0.684997
0.728002
0.747665
0.749502
0.738007
0.716797
0.688761
0.656177
0.620824
0.584072
0.546963
0.510276
0.474584
0.4403
0.40771
0.377006
0.348311
0.321688
0.297157
0.2747
0.254263
0.235758
0.219062
0.204016
0.190433
0.178095
0.166768
0.156213
0.146191
0.1365
0.126979
0.117492
0.107969
0.0983188
0.0885804
0.0785891
0.0686469
0.0581265
0.0483292
0.0366394
0.0283872
0.0130401
0.0114373
-14.5749
-14.5558
-14.3328
-14.1654
-14.0954
-14.1326
-14.2937
-14.5842
-14.9954
-15.503
-16.0755
-16.6789
-17.2828
-17.8648
-18.4121
-18.9178
-19.3791
-19.7944
-20.1625
-20.484
-20.759
-20.9887
-21.1746
-21.3175
-21.4178
-21.4747
-21.4862
-21.4487
-21.3571
-21.2047
-20.9829
-20.6814
-20.288
-19.789
-19.1699
-18.4164
-17.5183
-16.4726
-15.2851
-13.9724
-12.5671
-11.1085
-9.63422
-8.18448
-6.80055
-5.51839
-4.36424
-3.35263
-2.48689
-1.76148
-1.16507
-0.683389
-0.301189
-0.00357942
0.22324
0.391628
0.512395
0.594824
0.646781
0.674846
0.684469
0.680112
0.665397
0.643231
0.615925
0.585297
0.552761
0.519402
0.486042
0.453295
0.421608
0.391303
0.362604
0.33566
0.310559
0.287349
0.266032
0.246585
0.228939
0.212998
0.198624
0.185648
0.173867
0.163057
0.152982
0.14341
0.134136
0.124997
0.115855
0.106635
0.0972503
0.0877325
0.077935
0.0681328
0.0577767
0.0480146
0.0365847
0.0280507
0.0135827
0.0102327
-14.3241
-14.2205
-14.1343
-14.1172
-14.1574
-14.2629
-14.4515
-14.7277
-15.0867
-15.5185
-16.011
-16.5476
-17.1082
-17.6711
-18.2161
-18.727
-19.1934
-19.6111
-19.9748
-20.2883
-20.5538
-20.7742
-20.9515
-21.0867
-21.1794
-21.2282
-21.2306
-21.1828
-21.0794
-20.9135
-20.6765
-20.358
-19.9458
-19.4269
-18.7886
-18.0212
-17.1206
-16.0871
-14.9282
-13.6629
-12.318
-10.9228
-9.51175
-8.12367
-6.79647
-5.56291
-4.44732
-3.46373
-2.61621
-1.90067
-1.30757
-0.824318
-0.437127
-0.132286
0.103104
0.280736
0.410938
0.502663
0.563553
0.60005
0.61752
0.620391
0.612276
0.596098
0.574193
0.548417
0.520222
0.490735
0.460819
0.431127
0.402143
0.374222
0.347618
0.322507
0.299004
0.277182
0.257069
0.238664
0.221924
0.206775
0.193105
0.180759
0.169551
0.159269
0.149682
0.140563
0.131709
0.122953
0.114157
0.105244
0.0961289
0.0868373
0.0772415
0.0675853
0.0574011
0.0476754
0.036516
0.0276921
0.0141212
0.0090078
-14.3935
-14.4106
-14.3825
-14.3554
-14.3683
-14.4448
-14.6025
-14.8484
-15.1808
-15.5876
-16.0495
-16.5442
-17.0523
-17.5587
-18.0513
-18.5197
-18.9556
-19.3519
-19.7087
-20.0214
-20.2891
-20.511
-20.687
-20.8178
-20.9035
-20.9433
-20.935
-20.8749
-20.7575
-20.5758
-20.321
-19.9831
-19.5514
-19.0159
-18.3689
-17.6039
-16.7163
-15.707
-14.586
-13.3703
-12.081
-10.745
-9.39486
-8.06628
-6.79368
-5.60706
-4.52899
-3.57305
-2.74385
-2.03863
-1.44942
-0.9652
-0.57358
-0.261978
-0.0183854
0.16822
0.307679
0.408597
0.478381
0.523317
0.548682
0.558855
0.557436
0.547354
0.530968
0.510165
0.486433
0.460939
0.434584
0.408059
0.381884
0.356447
0.332031
0.308841
0.287017
0.266657
0.247813
0.230507
0.214722
0.200408
0.187471
0.175779
0.165161
0.155415
0.146321
0.137657
0.129222
0.12085
0.112402
0.103797
0.0949555
0.0858952
0.0765078
0.0670035
0.0569987
0.0473122
0.0364315
0.0273146
0.0146469
0.00777679
-14.4022
-14.3939
-14.3622
-14.3572
-14.4035
-14.5091
-14.6823
-14.9283
-15.245
-15.6226
-16.0464
-16.5012
-16.9726
-17.4465
-17.9099
-18.3515
-18.7623
-19.1359
-19.4687
-19.7591
-20.0075
-20.2136
-20.3775
-20.4984
-20.5752
-20.6057
-20.5867
-20.5142
-20.3828
-20.186
-19.9163
-19.5659
-19.1263
-18.589
-17.9459
-17.1906
-16.321
-15.341
-14.2598
-13.0911
-11.8545
-10.5754
-9.28392
-8.01235
-6.79213
-5.65073
-4.60914
-3.68039
-2.86958
-2.17507
-1.59032
-1.10575
-0.710265
-0.392394
-0.140994
0.0542879
0.202796
0.312777
0.391387
0.444749
0.478036
0.49557
0.500927
0.497037
0.486276
0.470558
0.451404
0.430017
0.407335
0.384086
0.360824
0.337969
0.315833
0.294649
0.274584
0.255758
0.238248
0.222099
0.207319
0.19388
0.181711
0.170698
0.160687
0.15149
0.142897
0.134693
0.12668
0.118692
0.110592
0.102299
0.0937346
0.0849102
0.0757369
0.0663897
0.0565708
0.0469266
0.0363308
0.0269212
0.0151548
0.0065532
-14.4298
-14.4418
-14.4483
-14.4729
-14.5326
-14.6383
-14.8006
-15.0258
-15.3136
-15.6571
-16.045
-16.4637
-16.8992
-17.3367
-17.7638
-18.1708
-18.5508
-18.8987
-19.2123
-19.4873
-19.7223
-19.916
-20.0674
-20.1754
-20.2387
-20.2554
-20.2229
-20.1372
-19.9935
-19.7859
-19.5074
-19.1505
-18.7069
-18.169
-17.5305
-16.7878
-15.9404
-14.9913
-13.9482
-12.8244
-11.6386
-10.4142
-9.17875
-7.9617
-6.79166
-5.6938
-4.68761
-3.7856
-2.99322
-2.30978
-1.73002
-1.2457
-0.846933
-0.5233
-0.264511
-0.0608754
0.0964467
0.215335
0.302684
0.364438
0.405655
0.430592
0.442792
0.445179
0.44014
0.429611
0.415143
0.397972
0.379071
0.359203
0.338955
0.318778
0.299014
0.279922
0.261695
0.244475
0.228365
0.213433
0.199708
0.187187
0.175819
0.165512
0.156129
0.147495
0.139412
0.131672
0.124083
0.116482
0.108733
0.100754
0.0924691
0.0838843
0.0749301
0.0657447
0.0561175
0.0465193
0.0362126
0.0265145
0.0156388
0.00534983
-14.459
-14.4779
-14.4966
-14.5317
-14.5998
-14.7109
-14.8726
-15.0886
-15.3579
-15.6748
-16.0302
-16.4141
-16.8146
-17.2186
-17.6144
-17.993
-18.3479
-18.6739
-18.9663
-19.2219
-19.4388
-19.616
-19.7524
-19.8468
-19.8975
-19.9023
-19.8582
-19.7614
-19.6069
-19.3893
-19.1021
-18.7387
-18.2923
-17.7569
-17.1274
-16.4004
-15.5756
-14.6562
-13.65
-12.5698
-11.4329
-10.2609
-9.07905
-7.91408
-6.79209
-5.73612
-4.76428
-3.88854
-3.11458
-2.44254
-1.8683
-1.38481
-0.983338
-0.654464
-0.388721
-0.17708
-0.0112024
0.116413
0.212389
0.28248
0.331618
0.363984
0.383081
0.391818
0.392588
0.387343
0.377662
0.364811
0.349794
0.333408
0.316272
0.298868
0.281565
0.264651
0.24834
0.232801
0.218158
0.204501
0.191884
0.180324
0.169794
0.160222
0.151487
0.143431
0.135867
0.128598
0.121437
0.114224
0.106828
0.0991632
0.0911614
0.0828196
0.0740886
0.0650694
0.0556389
0.0460908
0.0360756
0.0260969
0.0160932
0.00417918
-14.4888
-14.5156
-14.548
-14.597
-14.6747
-14.7891
-14.9464
-15.1501
-15.3997
-15.6909
-16.0162
-16.3666
-16.7319
-17.1015
-17.4655
-17.8156
-18.1447
-18.4471
-18.7184
-18.9555
-19.156
-19.3184
-19.441
-19.5222
-19.5602
-19.5526
-19.4965
-19.3882
-19.2233
-18.9969
-18.7031
-18.336
-17.8897
-17.3588
-16.7389
-16.0275
-15.225
-14.335
-13.365
-12.3269
-11.237
-10.1152
-8.98447
-7.86924
-6.79324
-5.77758
-4.83905
-3.98907
-3.2335
-2.57316
-2.00492
-1.52283
-1.11924
-0.78565
-0.513409
-0.294128
-0.119978
0.0161614
0.12063
0.198982
0.256014
0.295819
0.321852
0.337
0.343655
0.343783
0.338982
0.330547
0.319513
0.306705
0.292776
0.278236
0.263484
0.24883
0.234515
0.220729
0.20762
0.195298
0.183842
0.173288
0.163633
0.154824
0.14676
0.139298
0.132264
0.125473
0.118744
0.111922
0.10488
0.0975314
0.0898144
0.0817182
0.073214
0.0643649
0.0551352
0.0456419
0.0359186
0.0256708
0.0165125
0.00305311
-14.5181
-14.5514
-14.593
-14.6506
-14.7334
-14.8486
-15.0012
-15.1939
-15.4265
-15.6951
-15.9938
-16.3147
-16.6491
-16.9877
-17.3218
-17.6436
-17.9466
-18.2256
-18.476
-18.6943
-18.8779
-19.0246
-19.1327
-19.2005
-19.2258
-19.2063
-19.1392
-19.0207
-18.8469
-18.613
-18.3138
-17.9441
-17.4987
-16.973
-16.3635
-15.6683
-14.8883
-14.0272
-13.0924
-12.0951
-11.0503
-9.9765
-8.89466
-7.82693
-6.79495
-5.81805
-4.91181
-4.08709
-3.34984
-2.70146
-2.13968
-1.65955
-1.2544
-0.916627
-0.638353
-0.41182
-0.2297
-0.0852619
0.0275442
0.114062
0.178941
0.226178
0.259171
0.28078
0.293387
0.298964
0.29913
0.295201
0.288241
0.279105
0.268474
0.256886
0.244769
0.232457
0.220215
0.208255
0.196746
0.185821
0.175577
0.166076
0.157334
0.149318
0.141947
0.135096
0.128605
0.122299
0.116007
0.109579
0.102892
0.0958615
0.088431
0.0805826
0.072308
0.0636326
0.0546069
0.0451733
0.0357407
0.0252388
0.0168923
0.00198243
-14.5458
-14.5845
-14.6331
-14.6973
-14.784
-14.899
-15.0463
-15.2282
-15.4443
-15.6918
-15.9654
-16.2588
-16.5642
-16.8736
-17.1793
-17.4742
-17.7523
-18.0082
-18.2377
-18.437
-18.6034
-18.7347
-18.8286
-18.8832
-18.8963
-18.8654
-18.7877
-18.6597
-18.4776
-18.2371
-17.9336
-17.5625
-17.1191
-16.5995
-16.0011
-15.3225
-14.5649
-13.7323
-12.8317
-11.8737
-10.8723
-9.8445
-8.8093
-7.78693
-6.79708
-5.85745
-4.98249
-4.18252
-3.46349
-2.82728
-2.27238
-1.79474
-1.38858
-1.04717
-0.763334
-0.529949
-0.340182
-0.187691
-0.0667243
0.0278425
0.100504
0.155151
0.195116
0.22322
0.241833
0.252929
0.258139
0.2588
0.256
0.250622
0.243375
0.234825
0.225424
0.215533
0.205439
0.195376
0.185533
0.176064
0.167087
0.158684
0.150893
0.143702
0.137049
0.130827
0.124891
0.119079
0.113229
0.107198
0.100868
0.0941571
0.0870143
0.0794154
0.0713726
0.0628739
0.0540546
0.0446863
0.0355411
0.0248032
0.0172286
0.000976525
-14.5713
-14.6144
-14.6681
-14.7367
-14.8253
-14.9386
-15.08
-15.2512
-15.4519
-15.6796
-15.9302
-16.1981
-16.4766
-16.7588
-17.0377
-17.307
-17.561
-17.7945
-18.0035
-18.1841
-18.3336
-18.4494
-18.5291
-18.5707
-18.5717
-18.5298
-18.442
-18.3052
-18.1157
-17.8696
-17.5628
-17.1911
-16.7506
-16.238
-15.6512
-14.9895
-14.2543
-13.4497
-12.5824
-11.6624
-10.7027
-9.71878
-8.72811
-7.74905
-6.79951
-5.89571
-5.05104
-4.27527
-3.57433
-2.95047
-2.40285
-1.92819
-1.52158
-1.17704
-0.888133
-0.648308
-0.451232
-0.290954
-0.162022
-0.0595414
0.0208194
0.082837
0.129768
0.16439
0.189053
0.205727
0.21605
0.221377
0.222817
0.221279
0.217497
0.212064
0.205458
0.198063
0.19019
0.182092
0.17398
0.166026
0.158369
0.151111
0.144309
0.137975
0.132066
0.126491
0.121124
0.115815
0.110413
0.104782
0.098812
0.0924216
0.0855675
0.0782194
0.0704101
0.0620907
0.0534794
0.0441819
0.0353194
0.0243664
0.0175187
4.29289e-05
-14.5942
-14.6407
-14.6979
-14.7691
-14.8582
-14.969
-15.1041
-15.2648
-15.4508
-15.6602
-15.8893
-16.1333
-16.3867
-16.6432
-16.8968
-17.1417
-17.3724
-17.5843
-17.7732
-17.9355
-18.0682
-18.1686
-18.2344
-18.2631
-18.2525
-18.1999
-18.1026
-17.9576
-17.7615
-17.5106
-17.2013
-16.83
-16.3932
-15.8884
-15.3137
-14.6691
-13.9562
-13.1789
-12.344
-11.4607
-10.5409
-9.59901
-8.65084
-7.71311
-6.80214
-5.93278
-5.11742
-4.36531
-3.68229
-3.07092
-2.53092
-2.05973
-1.65318
-1.30604
-1.01253
-0.76669
-0.562656
-0.394871
-0.25819
-0.147948
-0.059989
0.00934248
0.0632197
0.10437
0.135115
0.157414
0.172911
0.182971
0.188725
0.191102
0.190861
0.188621
0.184883
0.180057
0.174474
0.168408
0.162089
0.155708
0.149423
0.143355
0.137583
0.132137
0.126996
0.122089
0.117306
0.11251
0.107563
0.102336
0.0967274
0.0906587
0.0840942
0.0769978
0.0694228
0.0612851
0.0528824
0.0436617
0.0350757
0.0239304
0.0177611
-0.000812969
-14.6141
-14.6631
-14.7226
-14.795
-14.8834
-14.9908
-15.1192
-15.2696
-15.4417
-15.6338
-15.8429
-16.0647
-16.2946
-16.527
-16.7567
-16.9782
-17.1866
-17.3775
-17.5469
-17.6912
-17.8074
-17.8928
-17.9447
-17.9609
-17.9389
-17.8761
-17.7698
-17.6172
-17.4152
-17.1603
-16.8494
-16.4793
-16.047
-15.5505
-14.9884
-14.361
-13.6701
-12.9197
-12.1161
-11.2681
-10.3867
-9.48488
-8.57727
-7.67898
-6.80491
-5.96863
-5.18163
-4.45261
-3.78732
-3.18853
-2.65646
-2.18917
-1.78318
-1.43395
-1.13632
-0.884883
-0.674256
-0.49926
-0.35506
-0.237229
-0.141789
-0.0652161
-0.00442738
0.0432459
0.0800915
0.108054
0.128775
0.14363
0.153763
0.160125
0.163496
0.164519
0.16372
0.161529
0.158301
0.154331
0.149864
0.145112
0.14025
0.135417
0.130713
0.126189
0.121843
0.117624
0.113438
0.109166
0.104681
0.0998631
0.0946183
0.0888726
0.082598
0.075754
0.0684136
0.0604594
0.0522652
0.0431273
0.0348104
0.0234972
0.0179555
-0.00158822
-14.6309
-14.6815
-14.7421
-14.8146
-14.9013
-15.0046
-15.1261
-15.2665
-15.4253
-15.6012
-15.7915
-15.9927
-16.2005
-16.4103
-16.6173
-16.8165
-17.0036
-17.1743
-17.3248
-17.4515
-17.5516
-17.6221
-17.6605
-17.6644
-17.6314
-17.5588
-17.4441
-17.2845
-17.0772
-16.8191
-16.5073
-16.1391
-15.712
-15.2242
-14.675
-14.0648
-13.3957
-12.6715
-11.8984
-11.0843
-10.2396
-9.37614
-8.5072
-7.64656
-6.80776
-6.00326
-5.24365
-4.53716
-3.88936
-3.30322
-2.77933
-2.31635
-1.9114
-1.56056
-1.25928
-1.00268
-0.78583
-0.603932
-0.452458
-0.327224
-0.224439
-0.140714
-0.0730637
-0.0188858
0.0240673
0.0577197
0.0837061
0.103406
0.117977
0.128386
0.135434
0.139786
0.14199
0.142499
0.141688
0.139871
0.137314
0.134244
0.130853
0.1273
0.123703
0.120132
0.116607
0.113096
0.109524
0.105787
0.101771
0.097367
0.0924889
0.0870672
0.0810829
0.0744916
0.0673857
0.0596164
0.0516299
0.0425805
0.0345243
0.0230687
0.0181031
-0.00228248
-14.6445
-14.6958
-14.7566
-14.8283
-14.9125
-15.0112
-15.1256
-15.256
-15.4022
-15.5628
-15.7356
-15.9174
-16.1046
-16.2931
-16.4786
-16.6568
-16.8235
-16.9747
-17.1068
-17.2166
-17.3008
-17.3569
-17.3821
-17.3741
-17.3303
-17.2484
-17.1257
-16.9597
-16.7478
-16.4871
-16.1751
-15.8094
-15.388
-14.9095
-14.3734
-13.7804
-13.1327
-12.4341
-11.6904
-10.909
-10.0994
-9.27254
-8.44048
-7.61576
-6.81069
-6.03668
-5.30352
-4.61896
-3.98839
-3.41491
-2.89945
-2.44113
-2.03765
-1.68568
-1.38122
-1.11988
-0.897176
-0.708693
-0.550204
-0.417771
-0.307789
-0.217016
-0.14257
-0.0819205
-0.0328661
0.00649053
0.0377728
0.0623607
0.0814202
0.0959316
0.106715
0.114456
0.119723
0.12299
0.124653
0.125046
0.124451
0.123112
0.12124
0.119009
0.116555
0.11397
0.111292
0.108509
0.105567
0.102377
0.098838
0.0948526
0.0903438
0.0852474
0.0795535
0.0732146
0.0663425
0.0587592
0.0509787
0.0420236
0.034219
0.0226463
0.0182063
-0.00289812
-14.6546
-14.7061
-14.7663
-14.8363
-14.9174
-15.0111
-15.1182
-15.239
-15.3731
-15.5192
-15.6755
-15.8392
-16.0071
-16.1756
-16.3409
-16.499
-16.6462
-16.7787
-16.8932
-16.9864
-17.0553
-17.0973
-17.1097
-17.0901
-17.036
-16.9452
-16.8151
-16.6432
-16.4272
-16.1646
-15.853
-15.4905
-15.0752
-14.6063
-14.0834
-13.5075
-12.8809
-12.2072
-11.4918
-10.7418
-9.96581
-9.17389
-8.37699
-7.58651
-6.81367
-6.06891
-5.36128
-4.69804
-4.08442
-3.52356
-3.0167
-2.56338
-2.16179
-1.80913
-1.50192
-1.23626
-1.00809
-0.813348
-0.648113
-0.508694
-0.391682
-0.29398
-0.212818
-0.145744
-0.0906074
-0.0455442
-0.00894643
0.0205617
0.0441511
0.0628134
0.0773847
0.0885677
0.0969517
0.103031
0.107221
0.109873
0.11129
0.11173
0.11142
0.11055
0.109276
0.107707
0.105901
0.103869
0.101572
0.0989396
0.0958865
0.0923248
0.0881881
0.0834182
0.0780144
0.0719276
0.0652881
0.0578911
0.0503144
0.0414588
0.0338962
0.0222312
0.018269
-0.00344014
-14.6613
-14.7123
-14.7712
-14.839
-14.9165
-15.0048
-15.1045
-15.2159
-15.3383
-15.4708
-15.6116
-15.7583
-15.9081
-16.0578
-16.204
-16.3432
-16.4718
-16.5864
-16.6839
-16.7611
-16.8152
-16.8435
-16.8435
-16.8127
-16.7488
-16.6495
-16.5124
-16.3353
-16.1158
-15.8517
-15.5411
-15.1822
-14.7735
-14.3144
-13.8048
-13.2459
-12.6399
-11.9903
-11.3023
-10.5824
-9.83861
-9.08001
-8.31661
-7.55878
-6.81673
-6.10001
-5.41698
-4.77445
-4.17744
-3.62915
-3.13103
-2.68298
-2.28365
-1.93073
-1.62121
-1.35164
-1.11837
-0.917695
-0.745993
-0.599815
-0.47595
-0.371454
-0.28367
-0.210231
-0.149046
-0.098286
-0.0563646
-0.0219141
0.00623778
0.0290907
0.047494
0.0621667
0.0737162
0.082656
0.0894203
0.0943794
0.0978514
0.100113
0.101405
0.101935
0.101874
0.10135
0.100442
0.0991794
0.0975438
0.0954818
0.0929223
0.0897896
0.0860277
0.0815851
0.0764711
0.0706355
0.0642268
0.057016
0.0496401
0.0408888
0.0335585
0.0218245
0.0182965
-0.00391602
-14.6645
-14.7145
-14.7716
-14.8366
-14.91
-14.9927
-15.0851
-15.1872
-15.2985
-15.4181
-15.5442
-15.675
-15.8078
-15.9399
-16.0681
-16.1893
-16.3003
-16.3979
-16.479
-16.5409
-16.5807
-16.5958
-16.5838
-16.5423
-16.469
-16.3616
-16.218
-16.0361
-15.8136
-15.5487
-15.2396
-14.8846
-14.4829
-14.0337
-13.5375
-12.9953
-12.4094
-11.7833
-11.1217
-10.4307
-9.71758
-8.99076
-8.25927
-7.53254
-6.81988
-6.13002
-5.47068
-4.84824
-4.2675
-3.73166
-3.24236
-2.79983
-2.40311
-2.05031
-1.73888
-1.4658
-1.22781
-1.02153
-0.843647
-0.690947
-0.560419
-0.449275
-0.354978
-0.27525
-0.208061
-0.151627
-0.104385
-0.0649811
-0.0322442
-0.00516969
0.0171021
0.0353046
0.0500617
0.0619046
0.0712857
0.0785929
0.0841609
0.0882823
0.0912133
0.0931769
0.0943603
0.0949094
0.094923
0.0944496
0.0934907
0.0920103
0.0899525
0.0872537
0.0838692
0.0797546
0.0749294
0.0693436
0.0631633
0.0561379
0.0489594
0.0403163
0.0332087
0.021427
0.0182949
-0.00433545
-14.6644
-14.7129
-14.7677
-14.8294
-14.8985
-14.9754
-15.0604
-15.1536
-15.2542
-15.3615
-15.4739
-15.5896
-15.7065
-15.8219
-15.9332
-16.0374
-16.1317
-16.213
-16.2787
-16.3258
-16.3519
-16.3543
-16.3308
-16.279
-16.1967
-16.0818
-15.9322
-15.7459
-15.521
-15.2557
-14.9484
-14.5979
-14.2033
-13.7643
-13.2813
-12.7556
-12.1893
-11.5859
-10.9496
-10.2863
-9.60255
-8.906
-8.20489
-7.5078
-6.82318
-6.15904
-5.52248
-4.91947
-4.35462
-3.8311
-3.35067
-2.91385
-2.52003
-2.16772
-1.85477
-1.57857
-1.3362
-1.12466
-0.940873
-0.781896
-0.644905
-0.527272
-0.426584
-0.340654
-0.267522
-0.205449
-0.152903
-0.108545
-0.0712104
-0.0398928
-0.0137244
0.00804033
0.0260402
0.0408226
0.0528571
0.0625484
0.0702478
0.076263
0.0808655
0.0842933
0.0867494
0.0883973
0.0893545
0.0896889
0.0894215
0.0885336
0.0869852
0.0847251
0.08172
0.0779336
0.0733957
0.0680579
0.0621028
0.0552615
0.048276
0.0397443
0.0328502
0.0210392
0.0182715
-0.00470993
-14.661
-14.7075