/*--------------------------------*- C++ -*----------------------------------*\
| =========                 |                                                 |
| \\      /  F ield         | OpenFOAM: The Open Source CFD Toolbox           |
|  \\    /   O peration     | Version:  2.1.1                                 |
|   \\  /    A nd           | Web:      www.OpenFOAM.org                      |
|    \\/     M anipulation  |                                                 |
\*---------------------------------------------------------------------------*/
FoamFile
{
    version     2.0;
    format      ascii;
    class       surfaceScalarField;
    location    "0.065";
    object      phi;
}
// * * * * * * * * * * * * * * * * * * * * * * * * * * * * * * * * * * * * * //

dimensions      [0 3 -1 0 0 0 0];

internalField   nonuniform List<scalar> 
13452
(
6.89921e-05
-5.04836e-07
6.88127e-05
1.79432e-07
6.82001e-05
6.12607e-07
6.72509e-05
9.49123e-07
6.61721e-05
1.07883e-06
6.50777e-05
1.09437e-06
6.40095e-05
1.0682e-06
6.29848e-05
1.02477e-06
6.20117e-05
9.73034e-07
6.10938e-05
9.17909e-07
6.0232e-05
8.61824e-07
5.94258e-05
8.06245e-07
5.86736e-05
7.52138e-07
5.79734e-05
7.00188e-07
5.73226e-05
6.50868e-07
5.67181e-05
6.04491e-07
5.61568e-05
5.61248e-07
5.56356e-05
5.21238e-07
5.51511e-05
4.84498e-07
5.47001e-05
4.51024e-07
5.42793e-05
4.20798e-07
5.38855e-05
3.93803e-07
5.35154e-05
3.70055e-07
5.31658e-05
3.49622e-07
5.28331e-05
3.32674e-07
5.25136e-05
3.19541e-07
5.22028e-05
3.10818e-07
5.1895e-05
3.07753e-07
5.15829e-05
3.12136e-07
5.12528e-05
3.30089e-07
5.08849e-05
3.67874e-07
5.04255e-05
4.59396e-07
6.74061e-07
4.97514e-05
7.01649e-05
-2.25796e-07
7.00409e-05
3.03405e-07
7.01813e-05
4.72198e-07
7.05083e-05
6.22187e-07
7.08582e-05
7.28884e-07
7.11563e-05
7.96246e-07
7.138e-05
8.44562e-07
7.15308e-05
8.73979e-07
7.16166e-05
8.87205e-07
7.16463e-05
8.88237e-07
7.16281e-05
8.8004e-07
7.15693e-05
8.64961e-07
7.14766e-05
8.4483e-07
7.13557e-05
8.21144e-07
7.12115e-05
7.9511e-07
7.10482e-05
7.6771e-07
7.08697e-05
7.39739e-07
7.06791e-05
7.11843e-07
7.04791e-05
6.8455e-07
7.02718e-05
6.58294e-07
7.00592e-05
6.33446e-07
6.98426e-05
6.10341e-07
6.96234e-05
5.89309e-07
6.94023e-05
5.70701e-07
6.918e-05
5.54953e-07
6.89569e-05
5.42613e-07
6.87332e-05
5.34534e-07
6.85092e-05
5.31806e-07
6.82846e-05
5.36713e-07
6.80636e-05
5.51058e-07
6.78485e-05
5.82971e-07
6.76846e-05
6.233e-07
7.06791e-07
6.76519e-05
7.22815e-05
-5.07476e-08
7.23963e-05
1.88604e-07
7.25006e-05
3.67906e-07
7.25863e-05
5.36512e-07
7.26686e-05
6.46587e-07
7.27494e-05
7.15406e-07
7.28341e-05
7.59817e-07
7.29192e-05
7.88904e-07
7.30006e-05
8.05853e-07
7.30756e-05
8.13234e-07
7.31426e-05
8.13025e-07
7.32007e-05
8.06823e-07
7.32496e-05
7.95941e-07
7.32892e-05
7.81531e-07
7.33198e-05
7.6458e-07
7.33415e-05
7.45926e-07
7.3355e-05
7.26284e-07
7.33606e-05
7.06259e-07
7.33588e-05
6.86371e-07
7.335e-05
6.67074e-07
7.33346e-05
6.48776e-07
7.33131e-05
6.31865e-07
7.32857e-05
6.16738e-07
7.32526e-05
6.03825e-07
7.32139e-05
5.93642e-07
7.31697e-05
5.86822e-07
7.31199e-05
5.84271e-07
7.30647e-05
5.87046e-07
7.30042e-05
5.97173e-07
7.29397e-05
6.15607e-07
7.28741e-05
6.48579e-07
7.2811e-05
6.86387e-07
7.60334e-07
7.27574e-05
7.45183e-05
-4.24571e-08
7.44875e-05
2.19403e-07
7.44755e-05
3.79985e-07
7.45141e-05
4.97829e-07
7.45732e-05
5.87485e-07
7.46381e-05
6.50514e-07
7.47023e-05
6.95682e-07
7.47641e-05
7.27076e-07
7.48233e-05
7.46674e-07
7.48796e-05
7.56869e-07
7.4933e-05
7.59714e-07
7.4983e-05
7.568e-07
7.50295e-05
7.49411e-07
7.50724e-05
7.38649e-07
7.51115e-05
7.25443e-07
7.51469e-05
7.10583e-07
7.51784e-05
6.9474e-07
7.52062e-05
6.78493e-07
7.52302e-05
6.62349e-07
7.52505e-05
6.46756e-07
7.52672e-05
6.32132e-07
7.52801e-05
6.18881e-07
7.52895e-05
6.07423e-07
7.52951e-05
5.98213e-07
7.52969e-05
5.91791e-07
7.5295e-05
5.88796e-07
7.52891e-05
5.90088e-07
7.52796e-05
5.9661e-07
7.52668e-05
6.09922e-07
7.52517e-05
6.30725e-07
7.52381e-05
6.62212e-07
7.52253e-05
6.99165e-07
7.50745e-07
7.52349e-05
7.66034e-05
9.9486e-09
7.66277e-05
1.95168e-07
7.66633e-05
3.44333e-07
7.67005e-05
4.60664e-07
7.67376e-05
5.50349e-07
7.67757e-05
6.12487e-07
7.68158e-05
6.5555e-07
7.68576e-05
6.85273e-07
7.69e-05
7.04286e-07
7.69421e-05
7.14765e-07
7.69833e-05
7.18512e-07
7.70232e-05
7.16935e-07
7.70614e-05
7.11202e-07
7.70977e-05
7.02322e-07
7.7132e-05
6.91161e-07
7.71641e-05
6.78461e-07
7.7194e-05
6.64863e-07
7.72215e-05
6.50924e-07
7.72468e-05
6.37139e-07
7.72696e-05
6.23954e-07
7.72899e-05
6.11788e-07
7.73077e-05
6.01054e-07
7.7323e-05
5.92178e-07
7.73356e-05
5.85623e-07
7.73454e-05
5.81922e-07
7.73525e-05
5.81689e-07
7.73569e-05
5.85693e-07
7.73588e-05
5.94742e-07
7.73587e-05
6.09987e-07
7.73575e-05
6.31916e-07
7.73575e-05
6.62225e-07
7.73588e-05
6.97859e-07
7.42569e-07
7.7367e-05
7.8831e-05
2.48639e-08
7.88382e-05
1.8794e-07
7.88557e-05
3.26899e-07
7.88835e-05
4.32785e-07
7.89186e-05
5.15288e-07
7.89562e-05
5.74867e-07
7.89945e-05
6.1727e-07
7.90327e-05
6.47043e-07
7.90705e-05
6.66511e-07
7.91076e-05
6.77686e-07
7.91438e-05
6.82327e-07
7.91789e-05
6.81833e-07
7.92127e-05
6.77353e-07
7.92452e-05
6.69867e-07
7.92761e-05
6.60215e-07
7.93055e-05
6.49115e-07
7.93331e-05
6.37192e-07
7.93591e-05
6.24989e-07
7.93832e-05
6.12995e-07
7.94055e-05
6.01652e-07
7.94259e-05
5.91381e-07
7.94444e-05
5.82595e-07
7.94608e-05
5.75718e-07
7.94753e-05
5.71208e-07
7.94876e-05
5.69573e-07
7.94979e-05
5.71379e-07
7.95063e-05
5.77292e-07
7.95131e-05
5.87981e-07
7.95188e-05
6.04271e-07
7.95242e-05
6.26527e-07
7.95308e-05
6.55577e-07
7.95389e-05
6.89826e-07
7.30463e-07
7.9551e-05
8.10846e-05
3.88247e-08
8.10942e-05
1.78366e-07
8.11169e-05
3.04137e-07
8.11466e-05
4.03081e-07
8.118e-05
4.8187e-07
8.12145e-05
5.40404e-07
8.12493e-05
5.82496e-07
8.12841e-05
6.12185e-07
8.13188e-05
6.31893e-07
8.13529e-05
6.43592e-07
8.13862e-05
6.48981e-07
8.14186e-05
6.49416e-07
8.145e-05
6.46009e-07
8.14801e-05
6.39711e-07
8.1509e-05
6.31337e-07
8.15365e-05
6.21585e-07
8.15626e-05
6.11066e-07
8.15873e-05
6.00314e-07
8.16105e-05
5.8981e-07
8.16322e-05
5.79994e-07
8.16523e-05
5.71283e-07
8.16708e-05
5.64085e-07
8.16877e-05
5.58817e-07
8.1703e-05
5.55915e-07
8.17167e-05
5.55854e-07
8.17289e-05
5.59141e-07
8.17399e-05
5.66336e-07
8.17499e-05
5.77981e-07
8.17595e-05
5.94661e-07
8.17694e-05
6.16649e-07
8.17806e-05
6.44347e-07
8.17935e-05
6.76951e-07
7.1474e-07
8.18092e-05
8.34099e-05
4.4437e-08
8.34195e-05
1.68843e-07
8.34396e-05
2.83994e-07
8.34662e-05
3.76498e-07
8.34973e-05
4.5073e-07
8.35306e-05
5.07139e-07
8.35646e-05
5.48463e-07
8.35988e-05
5.78048e-07
8.36325e-05
5.98114e-07
8.36657e-05
6.10464e-07
8.3698e-05
6.16682e-07
8.37293e-05
6.18076e-07
8.37596e-05
6.1573e-07
8.37887e-05
6.1057e-07
8.38167e-05
6.03392e-07
8.38434e-05
5.94882e-07
8.38688e-05
5.85636e-07
8.38929e-05
5.76184e-07
8.39157e-05
5.66997e-07
8.39372e-05
5.58511e-07
8.39574e-05
5.51135e-07
8.39762e-05
5.45269e-07
8.39937e-05
5.41312e-07
8.40099e-05
5.39675e-07
8.4025e-05
5.40787e-07
8.4039e-05
5.45094e-07
8.40523e-05
5.53057e-07
8.40652e-05
5.65105e-07
8.40782e-05
5.81651e-07
8.4092e-05
6.02894e-07
8.41073e-05
6.29022e-07
8.41246e-05
6.59637e-07
6.947e-07
8.41446e-05
8.57962e-05
4.69762e-08
8.58056e-05
1.59402e-07
8.58252e-05
2.64448e-07
8.5851e-05
3.50686e-07
8.58811e-05
4.20623e-07
8.59134e-05
4.74871e-07
8.59465e-05
5.15328e-07
8.59799e-05
5.44691e-07
8.6013e-05
5.64985e-07
8.60456e-05
5.77878e-07
8.60774e-05
5.84851e-07
8.61083e-05
5.87148e-07
8.61382e-05
5.85812e-07
8.61671e-05
5.81737e-07
8.61948e-05
5.75694e-07
8.62213e-05
5.68351e-07
8.62467e-05
5.60292e-07
8.62708e-05
5.52032e-07
8.62938e-05
5.44036e-07
8.63155e-05
5.3673e-07
8.63362e-05
5.30511e-07
8.63557e-05
5.25763e-07
8.63741e-05
5.22865e-07
8.63916e-05
5.22195e-07
8.64083e-05
5.24134e-07
8.64243e-05
5.29063e-07
8.644e-05
5.37357e-07
8.64557e-05
5.49346e-07
8.64721e-05
5.65318e-07
8.64896e-05
5.85406e-07
8.65089e-05
6.09689e-07
8.65306e-05
6.37954e-07
6.70045e-07
8.65552e-05
8.82499e-05
4.70432e-08
8.82596e-05
1.49773e-07
8.82782e-05
2.45849e-07
8.83026e-05
3.2621e-07
8.83313e-05
3.91956e-07
8.83624e-05
4.43748e-07
8.83948e-05
4.82996e-07
8.84276e-05
5.11878e-07
8.84603e-05
5.3221e-07
8.84927e-05
5.45508e-07
8.85244e-05
5.53133e-07
8.85553e-05
5.5625e-07
8.85853e-05
5.55852e-07
8.86142e-05
5.52792e-07
8.86421e-05
5.47814e-07
8.86689e-05
5.41562e-07
8.86946e-05
5.34603e-07
8.87192e-05
5.27437e-07
8.87427e-05
5.20516e-07
8.87652e-05
5.14251e-07
8.87867e-05
5.09025e-07
8.88072e-05
5.05201e-07
8.8827e-05
5.03131e-07
8.8846e-05
5.03156e-07
8.88645e-05
5.05609e-07
8.88828e-05
5.10809e-07
8.89011e-05
5.19052e-07
8.89199e-05
5.30584e-07
8.89396e-05
5.45599e-07
8.89608e-05
5.64173e-07
8.89842e-05
5.86314e-07
8.90103e-05
6.11877e-07
6.40653e-07
8.90397e-05
9.07726e-05
4.57279e-08
9.07822e-05
1.40165e-07
9.07999e-05
2.28135e-07
9.08233e-05
3.02816e-07
9.08509e-05
3.64441e-07
9.0881e-05
4.13622e-07
9.09125e-05
4.51442e-07
9.09448e-05
4.79646e-07
9.09771e-05
4.99828e-07
9.10093e-05
5.13361e-07
9.10409e-05
5.21487e-07
9.10719e-05
5.25295e-07
9.1102e-05
5.25718e-07
9.11313e-05
5.23568e-07
9.11595e-05
5.19554e-07
9.11868e-05
5.14292e-07
9.12131e-05
5.08328e-07
9.12384e-05
5.02142e-07
9.12627e-05
4.96169e-07
9.12862e-05
4.90801e-07
9.13088e-05
4.86401e-07
9.13307e-05
4.83308e-07
9.1352e-05
4.81841e-07
9.13728e-05
4.82305e-07
9.13934e-05
4.84982e-07
9.14141e-05
4.90133e-07
9.14352e-05
4.97985e-07
9.14571e-05
5.08714e-07
9.14802e-05
5.22436e-07
9.15052e-05
5.39179e-07
9.15326e-05
5.58898e-07
9.1563e-05
5.81455e-07
6.06604e-07
9.15971e-05
9.33668e-05
4.35752e-08
9.33764e-05
1.30597e-07
9.33933e-05
2.1122e-07
9.34156e-05
2.80458e-07
9.3442e-05
3.38056e-07
9.34711e-05
3.84517e-07
9.35019e-05
4.20705e-07
9.35335e-05
4.48021e-07
9.35655e-05
4.67854e-07
9.35974e-05
4.8144e-07
9.3629e-05
4.89908e-07
9.366e-05
4.9426e-07
9.36904e-05
4.95371e-07
9.37199e-05
4.94005e-07
9.37486e-05
4.90833e-07
9.37765e-05
4.86441e-07
9.38035e-05
4.81348e-07
9.38296e-05
4.76012e-07
9.38549e-05
4.70845e-07
9.38795e-05
4.66218e-07
9.39034e-05
4.62469e-07
9.39268e-05
4.59909e-07
9.39499e-05
4.58825e-07
9.39727e-05
4.59479e-07
9.39956e-05
4.62108e-07
9.40188e-05
4.66919e-07
9.40427e-05
4.74078e-07
9.40677e-05
4.83699e-07
9.40943e-05
4.95838e-07
9.4123e-05
5.10478e-07
9.41544e-05
5.27529e-07
9.4189e-05
5.46838e-07
5.68132e-07
9.42274e-05
9.60347e-05
4.09658e-08
9.60441e-05
1.21153e-07
9.60603e-05
1.95045e-07
9.60817e-05
2.59055e-07
9.61071e-05
3.12699e-07
9.61352e-05
3.56365e-07
9.61652e-05
3.90754e-07
9.61962e-05
4.17004e-07
9.62277e-05
4.3631e-07
9.62594e-05
4.49776e-07
9.62909e-05
4.58421e-07
9.6322e-05
4.63165e-07
9.63525e-05
4.6482e-07
9.63824e-05
4.641e-07
9.64116e-05
4.61635e-07
9.64401e-05
4.57979e-07
9.64678e-05
4.5362e-07
9.64948e-05
4.48991e-07
9.65212e-05
4.44478e-07
9.6547e-05
4.40427e-07
9.65723e-05
4.37148e-07
9.65973e-05
4.34923e-07
9.66221e-05
4.34002e-07
9.6647e-05
4.3461e-07
9.66722e-05
4.36939e-07
9.66979e-05
4.41145e-07
9.67247e-05
4.47342e-07
9.67528e-05
4.55593e-07
9.67827e-05
4.65904e-07
9.6815e-05
4.78217e-07
9.68501e-05
4.92408e-07
9.68886e-05
5.083e-07
5.25603e-07
9.69312e-05
9.87786e-05
3.81266e-08
9.87878e-05
1.11882e-07
9.88033e-05
1.7954e-07
9.88239e-05
2.38525e-07
9.88483e-05
2.8829e-07
9.88755e-05
3.29112e-07
9.89047e-05
3.61571e-07
9.89351e-05
3.86592e-07
9.89662e-05
4.05203e-07
9.89976e-05
4.18381e-07
9.9029e-05
4.27043e-07
9.90601e-05
4.32026e-07
9.90909e-05
4.34078e-07
9.91211e-05
4.33862e-07
9.91508e-05
4.31964e-07
9.91799e-05
4.28903e-07
9.92084e-05
4.25134e-07
9.92363e-05
4.21063e-07
9.92637e-05
4.17047e-07
9.92907e-05
4.13403e-07
9.93175e-05
4.10414e-07
9.93441e-05
4.08329e-07
9.93707e-05
4.07364e-07
9.93976e-05
4.07706e-07
9.9425e-05
4.09504e-07
9.94533e-05
4.12871e-07
9.94828e-05
4.17875e-07
9.95138e-05
4.24537e-07
9.95469e-05
4.32822e-07
9.95825e-05
4.42638e-07
9.96211e-05
4.53837e-07
9.96632e-05
4.66218e-07
4.79486e-07
9.97093e-05
0.000101601
3.51965e-08
0.00010161
1.02822e-07
0.000101625
1.64644e-07
0.000101644
2.18794e-07
0.000101668
2.64749e-07
0.000101694
3.02695e-07
0.000101723
3.33111e-07
0.000101753
3.56762e-07
0.000101783
3.74523e-07
0.000101814
3.87256e-07
0.000101846
3.95779e-07
0.000101877
4.00851e-07
0.000101908
4.03154e-07
0.000101938
4.03299e-07
0.000101968
4.01828e-07
0.000101998
3.99219e-07
0.000102027
3.95897e-07
0.000102056
3.92233e-07
0.000102085
3.88557e-07
0.000102113
3.85157e-07
0.000102141
3.82283e-07
0.000102169
3.80153e-07
0.000102198
3.78952e-07
0.000102227
3.78826e-07
0.000102256
3.79891e-07
0.000102287
3.82219e-07
0.000102319
3.8584e-07
0.000102353
3.9074e-07
0.000102389
3.96853e-07
0.000102427
4.04062e-07
0.000102469
4.12197e-07
0.000102514
4.21048e-07
4.30323e-07
0.000102563
0.000104503
3.22561e-08
0.000104512
9.39963e-08
0.000104527
1.503e-07
0.000104546
1.99789e-07
0.000104568
2.41997e-07
0.000104594
2.77045e-07
0.000104622
3.0533e-07
0.000104651
3.27483e-07
0.000104681
3.44252e-07
0.000104712
3.56392e-07
0.000104743
3.64629e-07
0.000104774
3.69644e-07
0.000104806
3.72055e-07
0.000104836
3.72419e-07
0.000104867
3.71234e-07
0.000104897
3.68938e-07
0.000104927
3.6592e-07
0.000104957
3.62518e-07
0.000104987
3.59031e-07
0.000105016
3.55716e-07
0.000105045
3.52795e-07
0.000105075
3.50453e-07
0.000105105
3.48841e-07
0.000105136
3.48075e-07
0.000105168
3.48235e-07
0.000105201
3.49361e-07
0.000105235
3.51454e-07
0.000105271
3.54468e-07
0.00010531
3.58315e-07
0.000105351
3.62862e-07
0.000105395
3.67928e-07
0.000105443
3.73297e-07
3.78693e-07
0.000105495
0.000107489
2.93504e-08
0.000107497
8.54132e-08
0.000107511
1.36458e-07
0.00010753
1.81439e-07
0.000107552
2.1996e-07
0.000107577
2.52096e-07
0.000107604
2.78173e-07
0.000107633
2.98718e-07
0.000107662
3.14366e-07
0.000107693
3.25774e-07
0.000107724
3.33583e-07
0.000107755
3.384e-07
0.000107787
3.4078e-07
0.000107818
3.41228e-07
0.000107849
3.40193e-07
0.00010788
3.38074e-07
0.00010791
3.35221e-07
0.000107941
3.31943e-07
0.000107972
3.28503e-07
0.000108002
3.25129e-07
0.000108033
3.22012e-07
0.000108064
3.19308e-07
0.000108096
3.17137e-07
0.000108128
3.15587e-07
0.000108162
3.14706e-07
0.000108197
3.14508e-07
0.000108233
3.14969e-07
0.000108272
3.16023e-07
0.000108312
3.17565e-07
0.000108356
3.19453e-07
0.000108402
3.21503e-07
0.000108452
3.23502e-07
3.25196e-07
0.000108505
0.00011056
2.65023e-08
0.000110568
7.7072e-08
0.000110581
1.2307e-07
0.000110599
1.63677e-07
0.000110621
1.98567e-07
0.000110645
2.2778e-07
0.000110672
2.51586e-07
0.0001107
2.70423e-07
0.000110729
2.84831e-07
0.00011076
2.95379e-07
0.000110791
3.02628e-07
0.000110822
3.07113e-07
0.000110853
3.0933e-07
0.000110885
3.0973e-07
0.000110916
3.08715e-07
0.000110948
3.06643e-07
0.000110979
3.03828e-07
0.000111011
3.00543e-07
0.000111042
2.97021e-07
0.000111074
2.93458e-07
0.000111106
2.90017e-07
0.000111138
2.86824e-07
0.000111171
2.83973e-07
0.000111205
2.81524e-07
0.000111241
2.79503e-07
0.000111277
2.77901e-07
0.000111316
2.76672e-07
0.000111356
2.7574e-07
0.000111398
2.74989e-07
0.000111444
2.74274e-07
0.000111492
2.73416e-07
0.000111543
2.7221e-07
2.70434e-07
0.000111598
0.000113718
2.37217e-08
0.000113726
6.89639e-08
0.000113739
1.10091e-07
0.000113757
1.46443e-07
0.000113777
1.77749e-07
0.000113801
2.04032e-07
0.000113827
2.2551e-07
0.000113855
2.42552e-07
0.000113884
2.55613e-07
0.000113915
2.65182e-07
0.000113945
2.71746e-07
0.000113977
2.75775e-07
0.000114008
2.77704e-07
0.00011404
2.77932e-07
0.000114072
2.76815e-07
0.000114104
2.74671e-07
0.000114136
2.71776e-07
0.000114168
2.68367e-07
0.000114201
2.64648e-07
0.000114233
2.60784e-07
0.000114266
2.5691e-07
0.0001143
2.53127e-07
0.000114335
2.49504e-07
0.00011437
2.46077e-07
0.000114407
2.42853e-07
0.000114445
2.39805e-07
0.000114485
2.36875e-07
0.000114526
2.33977e-07
0.00011457
2.30994e-07
0.000114617
2.27782e-07
0.000114666
2.24171e-07
0.000114718
2.19973e-07
2.14997e-07
0.000114774
0.000116967
2.10104e-08
0.000116975
6.10748e-08
0.000116988
9.74786e-08
0.000117004
1.29675e-07
0.000117025
1.57441e-07
0.000117048
1.80786e-07
0.000117074
1.99889e-07
0.000117101
2.15056e-07
0.00011713
2.26672e-07
0.00011716
2.35153e-07
0.000117191
2.40919e-07
0.000117222
2.44375e-07
0.000117254
2.459e-07
0.000117286
2.45843e-07
0.000117318
2.44514e-07
0.000117351
2.42189e-07
0.000117384
2.39107e-07
0.000117416
2.35473e-07
0.00011745
2.31459e-07
0.000117483
2.27203e-07
0.000117517
2.22813e-07
0.000117552
2.18365e-07
0.000117588
2.13907e-07
0.000117624
2.09457e-07
0.000117662
2.05005e-07
0.000117701
2.00511e-07
0.000117742
1.9591e-07
0.000117785
1.91111e-07
0.00011783
1.86e-07
0.000117878
1.80439e-07
0.000117927
1.74274e-07
0.00011798
1.67335e-07
1.59464e-07
0.000118036
0.000120309
1.83659e-08
0.000120316
5.3387e-08
0.000120329
8.51916e-08
0.000120345
1.13317e-07
0.000120365
1.37579e-07
0.000120388
1.57978e-07
0.000120413
1.74661e-07
0.00012044
1.87883e-07
0.000120469
1.97965e-07
0.000120499
2.0526e-07
0.000120529
2.10124e-07
0.000120561
2.12903e-07
0.000120593
2.1392e-07
0.000120625
2.13475e-07
0.000120658
2.11834e-07
0.000120691
2.09234e-07
0.000120724
2.05876e-07
0.000120758
2.01933e-07
0.000120792
1.97547e-07
0.000120826
1.92829e-07
0.000120861
1.87863e-07
0.000120897
1.82704e-07
0.000120933
1.77381e-07
0.000120971
1.71896e-07
0.000121009
1.66227e-07
0.00012105
1.60326e-07
0.000121091
1.54123e-07
0.000121135
1.47529e-07
0.000121181
1.40434e-07
0.000121228
1.32713e-07
0.000121278
1.24228e-07
0.000121331
1.14829e-07
1.04392e-07
0.000121386
0.000123746
1.57835e-08
0.000123753
4.58813e-08
0.000123765
7.31916e-08
0.000123781
9.73161e-08
0.000123801
1.18101e-07
0.000123823
1.35545e-07
0.000123848
1.49767e-07
0.000123875
1.60979e-07
0.000123903
1.69448e-07
0.000123933
1.75469e-07
0.000123964
1.79339e-07
0.000123996
1.81345e-07
0.000124028
1.81763e-07
0.00012406
1.80842e-07
0.000124093
1.78805e-07
0.000124127
1.7585e-07
0.000124161
1.72144e-07
0.000124195
1.67827e-07
0.000124229
1.63012e-07
0.000124264
1.57787e-07
0.0001243
1.52214e-07
0.000124336
1.46327e-07
0.000124374
1.4014e-07
0.000124412
1.33643e-07
0.000124451
1.26803e-07
0.000124492
1.1957e-07
0.000124534
1.11874e-07
0.000124578
1.03626e-07
0.000124624
9.4728e-08
0.000124671
8.50672e-08
0.000124721
7.45234e-08
0.000124773
6.29698e-08
5.03134e-08
0.000124827
0.000127281
1.32567e-08
0.000127288
3.85368e-08
0.0001273
6.14398e-08
0.000127316
8.16186e-08
0.000127335
9.89463e-08
0.000127357
1.13422e-07
0.000127382
1.25143e-07
0.000127408
1.34286e-07
0.000127437
1.41071e-07
0.000127467
1.45742e-07
0.000127497
1.48537e-07
0.000127529
1.49692e-07
0.000127561
1.49432e-07
0.000127594
1.4796e-07
0.000127628
1.4546e-07
0.000127661
1.42089e-07
0.000127695
1.37981e-07
0.00012773
1.33246e-07
0.000127765
1.27971e-07
0.000127801
1.22219e-07
0.000127837
1.16032e-07
0.000127874
1.0943e-07
0.000127911
1.02411e-07
0.00012795
9.49568e-08
0.00012799
8.70288e-08
0.000128031
7.85736e-08
0.000128073
6.95232e-08
0.000128117
5.97975e-08
0.000128163
4.93064e-08
0.00012821
3.79534e-08
0.000128259
2.56371e-08
0.000128309
1.22528e-08
-2.26269e-09
0.000128362
0.000130917
1.07811e-08
0.000130925
3.13377e-08
0.000130936
4.99069e-08
0.000130952
6.61823e-08
0.00013097
8.00615e-08
0.000130992
9.15486e-08
0.000131017
1.00728e-07
0.000131043
1.07745e-07
0.000131072
1.1278e-07
0.000131101
1.16032e-07
0.000131132
1.17683e-07
0.000131164
1.1792e-07
0.000131196
1.16919e-07
0.000131229
1.14842e-07
0.000131263
1.11828e-07
0.000131297
1.08e-07
0.000131332
1.0346e-07
0.000131367
9.82855e-08
0.000131402
9.2541e-08
0.000131438
8.62696e-08
0.000131475
7.94934e-08
0.000131512
7.22173e-08
0.00013155
6.44306e-08
0.000131589
5.61059e-08
0.000131628
4.72021e-08
0.000131669
3.7666e-08
0.000131711
2.74334e-08
0.000131755
1.64328e-08
0.0001318
4.58574e-09
0.000131846
-8.18912e-09
0.000131893
-2.19744e-08
0.000131942
-3.68536e-08
-5.28641e-08
0.000131993
0.000134658
8.34519e-09
0.000134665
2.42559e-08
0.000134676
3.85454e-08
0.000134691
5.09422e-08
0.00013471
6.13714e-08
0.000134732
6.98479e-08
0.000134756
7.64469e-08
0.000134782
8.12875e-08
0.000134811
8.45207e-08
0.00013484
8.63045e-08
0.000134871
8.67609e-08
0.000134903
8.60263e-08
0.000134936
8.42373e-08
0.000134969
8.15121e-08
0.000135003
7.7953e-08
0.000135037
7.36466e-08
0.000135072
6.86649e-08
0.000135107
6.30529e-08
0.000135143
5.68557e-08
0.000135179
5.00964e-08
0.000135216
4.27805e-08
0.000135253
3.49009e-08
0.000135291
2.64386e-08
0.00013533
1.73593e-08
0.00013537
7.62158e-09
0.00013541
-2.82542e-09
0.000135452
-1.40424e-08
0.000135494
-2.60898e-08
0.000135538
-3.90347e-08
0.000135583
-5.29431e-08
0.000135628
-6.78798e-08
0.000135675
-8.39086e-08
-1.01044e-07
0.000135724
0.000138505
5.9666e-09
0.000138512
1.73153e-08
0.000138523
2.73747e-08
0.000138538
3.58995e-08
0.000138556
4.28515e-08
0.000138578
4.82688e-08
0.000138602
5.22282e-08
0.000138629
5.48259e-08
0.000138657
5.61918e-08
0.000138687
5.64588e-08
0.000138718
5.56792e-08
0.00013875
5.39442e-08
0.000138783
5.13457e-08
0.000138816
4.79594e-08
0.00013885
4.38501e-08
0.000138885
3.90717e-08
0.00013892
3.3663e-08
0.000138955
2.76358e-08
0.000138991
2.10339e-08
0.000139027
1.38501e-08
0.000139064
6.07431e-09
0.000139101
-2.31138e-09
0.000139139
-1.1326e-08
0.000139178
-2.10151e-08
0.000139217
-3.14176e-08
0.000139256
-4.25818e-08
0.000139297
-5.456e-08
0.000139338
-6.74055e-08
0.00013938
-8.11726e-08
0.000139423
-9.59134e-08
0.000139467
-1.11676e-07
0.000139512
-1.28507e-07
-1.46401e-07
0.000139557
0.000142462
3.56733e-09
0.000142469
1.0403e-08
0.00014248
1.62595e-08
0.000142495
2.09189e-08
0.000142513
2.43847e-08
0.000142535
2.67209e-08
0.000142559
2.80066e-08
0.000142585
2.83218e-08
0.000142614
2.78151e-08
0.000142644
2.65562e-08
0.000142675
2.44895e-08
0.000142707
2.17143e-08
0.00014274
1.82815e-08
0.000142774
1.42234e-08
0.000142808
9.56585e-09
0.000142843
4.33966e-09
0.000142878
-1.43018e-09
0.000142913
-7.84725e-09
0.000142949
-1.47895e-08
0.000142985
-2.23182e-08
0.000143022
-3.04497e-08
0.000143059
-3.92122e-08
0.000143096
-4.86386e-08
0.000143134
-5.87687e-08
0.000143172
-6.96433e-08
0.000143211
-8.13069e-08
0.00014325
-9.3805e-08
0.00014329
-1.07183e-07
0.00014333
-1.21483e-07
0.000143371
-1.36744e-07
0.000143412
-1.53e-07
0.000143454
-1.70281e-07
-1.88566e-07
0.000143496
0.000146531
1.40413e-09
0.000146538
3.83304e-09
0.000146549
5.47349e-09
0.000146564
6.14741e-09
0.000146582
5.97401e-09
0.000146604
5.09356e-09
0.000146628
3.59906e-09
0.000146655
1.44881e-09
0.000146684
-1.06448e-09
0.000146714
-3.75896e-09
0.000146746
-7.06928e-09
0.000146778
-1.0837e-08
0.000146812
-1.50662e-08
0.000146846
-1.97533e-08
0.00014688
-2.49039e-08
0.000146915
-3.05315e-08
0.00014695
-3.66559e-08
0.000146986
-4.33114e-08
0.000147021
-5.04962e-08
0.000147057
-5.82498e-08
0.000147093
-6.66053e-08
0.00014713
-7.55972e-08
0.000147166
-8.52624e-08
0.000147203
-9.56409e-08
0.00014724
-1.06774e-07
0.000147278
-1.18701e-07
0.000147315
-1.31462e-07
0.000147353
-1.45093e-07
0.000147391
-1.59628e-07
0.00014743
-1.75093e-07
0.000147468
-1.9151e-07
0.000147507
-2.08898e-07
-2.27221e-07
0.000147546
0.000150718
-1.25275e-09
0.000150725
-3.12749e-09
0.000150736
-5.55337e-09
0.000150751
-8.70861e-09
0.00015077
-1.24319e-08
0.000150791
-1.65199e-08
0.000150816
-2.08151e-08
0.000150842
-2.5227e-08
0.000150871
-2.96631e-08
0.000150901
-3.41373e-08
0.000150933
-3.87827e-08
0.000150966
-4.35984e-08
0.000150999
-4.86255e-08
0.000151033
-5.39166e-08
0.000151068
-5.95209e-08
0.000151103
-6.54857e-08
0.000151138
-7.18541e-08
0.000151174
-7.86787e-08
0.000151209
-8.5996e-08
0.000151245
-9.38476e-08
0.00015128
-1.02277e-07
0.000151316
-1.11327e-07
0.000151352
-1.21039e-07
0.000151388
-1.31455e-07
0.000151424
-1.42613e-07
0.000151459
-1.54552e-07
0.000151495
-1.67303e-07
0.000151531
-1.80898e-07
0.000151567
-1.9536e-07
0.000151602
-2.10706e-07
0.000151638
-2.26947e-07
0.000151673
-2.44091e-07
-2.62093e-07
0.000151708
0.000155023
-2.53632e-09
0.000155028
-8.71595e-09
0.000155039
-1.57377e-08
0.000155053
-2.34573e-08
0.000155072
-3.13331e-08
0.000155095
-3.89979e-08
0.00015512
-4.6265e-08
0.000155148
-5.30898e-08
0.000155178
-5.9491e-08
0.000155209
-6.5521e-08
0.000155242
-7.13253e-08
0.000155275
-7.70166e-08
0.000155309
-8.2692e-08
0.000155344
-8.84463e-08
0.000155379
-9.43651e-08
0.000155414
-1.00526e-07
0.000155449
-1.06999e-07
0.000155484
-1.13852e-07
0.000155519
-1.2114e-07
0.000155554
-1.28919e-07
0.000155589
-1.37239e-07
0.000155624
-1.4615e-07
0.000155659
-1.55697e-07
0.000155693
-1.65921e-07
0.000155727
-1.7686e-07
0.000155761
-1.88548e-07
0.000155795
-2.01014e-07
0.000155829
-2.14279e-07
0.000155862
-2.28363e-07
0.000155894
-2.43274e-07
0.000155926
-2.59017e-07
0.000155958
-2.75589e-07
-2.92941e-07
0.000155989
0.000159455
-6.69093e-09
0.000159462
-1.62264e-08
0.000159473
-2.6598e-08
0.000159487
-3.77571e-08
0.000159505
-4.92299e-08
0.000159527
-6.03914e-08
0.000159551
-7.08009e-08
0.000159578
-8.02926e-08
0.000159608
-8.88793e-08
0.000159639
-9.66668e-08
0.000159671
-1.03829e-07
0.000159705
-1.10533e-07
0.000159739
-1.16932e-07
0.000159774
-1.23172e-07
0.000159809
-1.29381e-07
0.000159844
-1.35677e-07
0.000159879
-1.42158e-07
0.000159914
-1.48916e-07
0.000159949
-1.56028e-07
0.000159984
-1.63564e-07
0.000160018
-1.71584e-07
0.000160052
-1.80146e-07
0.000160086
-1.89297e-07
0.000160119
-1.99081e-07
0.000160152
-2.09537e-07
0.000160184
-2.20694e-07
0.000160215
-2.32578e-07
0.000160246
-2.45208e-07
0.000160277
-2.58595e-07
0.000160306
-2.72743e-07
0.000160335
-2.87648e-07
0.000160362
-3.03304e-07
-3.19658e-07
0.000160389
0.000164003
-3.94433e-09
0.000164006
-1.84756e-08
0.000164015
-3.56345e-08
0.00016403
-5.34775e-08
0.000164052
-7.04033e-08
0.000164077
-8.56796e-08
0.000164105
-9.91237e-08
0.000164136
-1.10851e-07
0.000164168
-1.21081e-07
0.000164201
-1.3006e-07
0.000164236
-1.38049e-07
0.00016427
-1.45294e-07
0.000164305
-1.52009e-07
0.000164341
-1.58386e-07
0.000164376
-1.64587e-07
0.000164411
-1.70755e-07
0.000164446
-1.77009e-07
0.00016448
-1.83453e-07
0.000164514
-1.90178e-07
0.000164548
-1.9726e-07
0.000164581
-2.04768e-07
0.000164614
-2.1276e-07
0.000164646
-2.21288e-07
0.000164677
-2.30394e-07
0.000164708
-2.40115e-07
0.000164738
-2.50479e-07
0.000164767
-2.6151e-07
0.000164795
-2.73221e-07
0.000164822
-2.85621e-07
0.000164848
-2.98711e-07
0.000164872
-3.12482e-07
0.000164896
-3.26926e-07
-3.41989e-07
0.000164918
0.000168702
-1.37894e-08
0.00016871
-2.68728e-08
0.000168718
-4.40064e-08
0.000168729
-6.3924e-08
0.000168744
-8.5226e-08
0.000168763
-1.05446e-07
0.000168788
-1.23314e-07
0.000168815
-1.38633e-07
0.000168846
-1.51642e-07
0.000168879
-1.62691e-07
0.000168913
-1.72152e-07
0.000168948
-1.80377e-07
0.000168983
-1.87679e-07
0.000169019
-1.94326e-07
0.000169055
-2.00547e-07
0.000169091
-2.06532e-07
0.000169127
-2.12442e-07
0.000169162
-2.18409e-07
0.000169196
-2.24545e-07
0.00016923
-2.30946e-07
0.000169262
-2.3769e-07
0.000169295
-2.44844e-07
0.000169326
-2.52463e-07
0.000169356
-2.60594e-07
0.000169385
-2.69273e-07
0.000169413
-2.7853e-07
0.00016944
-2.88384e-07
0.000169466
-2.98849e-07
0.00016949
-3.09931e-07
0.000169513
-3.21627e-07
0.000169534
-3.33927e-07
0.000169554
-3.46819e-07
-3.60252e-07
0.000169572
0.000173491
6.53316e-09
0.000173485
-2.07043e-08
0.000173496
-5.50596e-08
0.000173519
-8.68581e-08
0.000173549
-1.14946e-07
0.000173582
-1.38418e-07
0.000173616
-1.5797e-07
0.000173652
-1.74206e-07
0.000173688
-1.87687e-07
0.000173724
-1.98924e-07
0.00017376
-2.08381e-07
0.000173796
-2.16465e-07
0.000173832
-2.23516e-07
0.000173868
-2.29817e-07
0.000173903
-2.35603e-07
0.000173937
-2.4107e-07
0.000173971
-2.4638e-07
0.000174004
-2.51669e-07
0.000174037
-2.5705e-07
0.000174069
-2.62619e-07
0.000174099
-2.68454e-07
0.000174129
-2.74624e-07
0.000174158
-2.81183e-07
0.000174185
-2.88176e-07
0.000174212
-2.9564e-07
0.000174237
-3.03602e-07
0.000174261
-3.12083e-07
0.000174283
-3.21094e-07
0.000174304
-3.30639e-07
0.000174323
-3.40718e-07
0.00017434
-3.51321e-07
0.000174356
-3.62436e-07
-3.74013e-07
0.000174369
0.000178499
-2.35001e-08
0.000178502
-2.43748e-08
0.000178492
-4.4907e-08
0.000178484
-7.8339e-08
0.000178487
-1.18332e-07
0.000178502
-1.53391e-07
0.000178526
-1.8177e-07
0.000178556
-2.04068e-07
0.00017859
-2.2166e-07
0.000178626
-2.35582e-07
0.000178665
-2.4666e-07
0.000178704
-2.55581e-07
0.000178743
-2.62899e-07
0.000178782
-2.69049e-07
0.000178821
-2.74377e-07
0.000178859
-2.79155e-07
0.000178896
-2.83602e-07
0.000178933
-2.8789e-07
0.000178968
-2.92157e-07
0.000179002
-2.96516e-07
0.000179034
-3.01056e-07
0.000179065
-3.05852e-07
0.000179095
-3.10962e-07
0.000179123
-3.16433e-07
0.00017915
-3.22302e-07
0.000179175
-3.28597e-07
0.000179198
-3.35336e-07
0.00017922
-3.42531e-07
0.000179239
-3.50188e-07
0.000179257
-3.58303e-07
0.000179272
-3.66869e-07
0.000179286
-3.75874e-07
-3.85277e-07
0.000179297
0.000183486
5.74288e-08
0.000183465
-2.41159e-09
0.000183501
-8.09561e-08
0.000183555
-1.32918e-07
0.000183608
-1.71611e-07
0.000183657
-2.0165e-07
0.0001837
-2.25307e-07
0.000183741
-2.44493e-07
0.000183779
-2.59961e-07
0.000183816
-2.72399e-07
0.000183852
-2.82474e-07
0.000183887
-2.90715e-07
0.000183921
-2.97534e-07
0.000183956
-3.03267e-07
0.000183989
-3.08188e-07
0.000184023
-3.12522e-07
0.000184056
-3.1645e-07
0.000184088
-3.20124e-07
0.000184119
-3.23666e-07
0.00018415
-3.27181e-07
0.00018418
-3.30755e-07
0.000184208
-3.34457e-07
0.000184236
-3.38348e-07
0.000184262
-3.42475e-07
0.000184286
-3.46876e-07
0.000184309
-3.51584e-07
0.000184331
-3.56619e-07
0.00018435
-3.61998e-07
0.000184368
-3.67729e-07
0.000184383
-3.73815e-07
0.000184396
-3.80252e-07
0.000184408
-3.87033e-07
-3.94125e-07
0.000184416
0.000188861
8.11629e-09
0.000188797
6.16887e-08
0.000188713
3.14967e-09
0.00018865
-7.02655e-08
0.000188633
-1.53927e-07
0.000188648
-2.16691e-07
0.000188682
-2.59543e-07
0.000188727
-2.8974e-07
0.000188779
-3.11497e-07
0.000188834
-3.27437e-07
0.000188891
-3.39231e-07
0.000188948
-3.48022e-07
0.000189005
-3.54627e-07
0.000189061
-3.59636e-07
0.000189117
-3.63482e-07
0.000189171
-3.66489e-07
0.000189223
-3.68902e-07
0.000189274
-3.70913e-07
0.000189323
-3.72671e-07
0.00018937
-3.74294e-07
0.000189415
-3.75878e-07
0.000189458
-3.77501e-07