/*--------------------------------*- C++ -*----------------------------------*\
| =========                 |                                                 |
| \\      /  F ield         | OpenFOAM: The Open Source CFD Toolbox           |
|  \\    /   O peration     | Version:  2.1.1                                 |
|   \\  /    A nd           | Web:      www.OpenFOAM.org                      |
|    \\/     M anipulation  |                                                 |
\*---------------------------------------------------------------------------*/
FoamFile
{
    version     2.0;
    format      ascii;
    class       volVectorField;
    location    "0.065";
    object      U;
}
// * * * * * * * * * * * * * * * * * * * * * * * * * * * * * * * * * * * * * //

dimensions      [0 1 -1 0 0 0 0];

internalField   nonuniform List<vector> 
6820
(
(8.34337 -0.360073 0)
(8.40106 -0.247135 0)
(8.35596 -0.115271 0)
(8.24752 -0.0365247 0)
(8.11889 0.00605642 0)
(7.98521 0.0279374 0)
(7.85279 0.0387286 0)
(7.72502 0.043451 0)
(7.6033 0.0447464 0)
(7.48817 0.0440727 0)
(7.37986 0.0422722 0)
(7.27837 0.0398503 0)
(7.18359 0.0371192 0)
(7.09527 0.0342759 0)
(7.01313 0.0314455 0)
(6.93682 0.0287074 0)
(6.86597 0.0261111 0)
(6.80019 0.0236861 0)
(6.73908 0.021449 0)
(6.68225 0.0194082 0)
(6.62929 0.0175675 0)
(6.57981 0.0159284 0)
(6.53342 0.0144929 0)
(6.48972 0.0132656 0)
(6.44831 0.0122568 0)
(6.40874 0.0114868 0)
(6.37054 0.0109916 0)
(6.33308 0.0108491 0)
(6.29564 0.011177 0)
(6.25707 0.0123095 0)
(6.21521 0.015019 0)
(6.16777 0.0198313 0)
(6.10195 0.0403711 0)
(8.32138 0.166258 0)
(8.28708 0.190028 0)
(8.28541 0.132196 0)
(8.31735 0.0959316 0)
(8.36161 0.075119 0)
(8.4016 0.0624802 0)
(8.4326 0.0550249 0)
(8.45457 0.0505344 0)
(8.46836 0.0476683 0)
(8.47498 0.0457137 0)
(8.47546 0.0442764 0)
(8.47073 0.0431198 0)
(8.46162 0.0421062 0)
(8.44884 0.0411606 0)
(8.43303 0.0402445 0)
(8.41474 0.0393419 0)
(8.39444 0.03845 0)
(8.37253 0.0375736 0)
(8.34936 0.0367224 0)
(8.32521 0.035909 0)
(8.30033 0.0351482 0)
(8.27491 0.0344574 0)
(8.2491 0.0338575 0)
(8.22304 0.0333741 0)
(8.1968 0.0330416 0)
(8.17044 0.032907 0)
(8.14402 0.0330409 0)
(8.1175 0.0335576 0)
(8.09106 0.0346286 0)
(8.06428 0.0366859 0)
(8.03931 0.0400799 0)
(8.01255 0.0472876 0)
(8.00605 0.0576633 0)
(8.3225 -0.060876 0)
(8.31395 -0.0832488 0)
(8.33044 -0.0540426 0)
(8.34419 -0.0202198 0)
(8.35296 0.00252289 0)
(8.36187 0.0166862 0)
(8.37147 0.025967 0)
(8.38134 0.0322314 0)
(8.391 0.0365039 0)
(8.40005 0.0394308 0)
(8.40825 0.0414081 0)
(8.41547 0.0426819 0)
(8.42164 0.0434279 0)
(8.42673 0.0437797 0)
(8.43076 0.0438394 0)
(8.43376 0.0436869 0)
(8.43578 0.0433856 0)
(8.43687 0.042987 0)
(8.43707 0.0425342 0)
(8.43645 0.0420639 0)
(8.43506 0.0416092 0)
(8.43294 0.0412014 0)
(8.43012 0.0408725 0)
(8.42663 0.0406576 0)
(8.4225 0.0405992 0)
(8.41774 0.0407498 0)
(8.41234 0.0411872 0)
(8.4063 0.0420007 0)
(8.39967 0.0433933 0)
(8.39238 0.0454087 0)
(8.38496 0.0488826 0)
(8.37706 0.0520603 0)
(8.37089 0.0597457 0)
(8.33365 0.0145799 0)
(8.32974 0.0477541 0)
(8.32729 0.05407 0)
(8.32855 0.046681 0)
(8.33434 0.0412232 0)
(8.34174 0.038768 0)
(8.34908 0.038011 0)
(8.35612 0.0380256 0)
(8.36289 0.0383123 0)
(8.36937 0.0386522 0)
(8.37551 0.0389487 0)
(8.38129 0.0391626 0)
(8.3867 0.0392867 0)
(8.3917 0.0393272 0)
(8.39629 0.039296 0)
(8.40046 0.0392084 0)
(8.4042 0.0390817 0)
(8.40752 0.0389345 0)
(8.41041 0.0387863 0)
(8.41289 0.0386578 0)
(8.41496 0.0385712 0)
(8.41662 0.0385513 0)
(8.41787 0.0386266 0)
(8.41871 0.0388317 0)
(8.41913 0.0392101 0)
(8.41912 0.0398171 0)
(8.41869 0.0407296 0)
(8.41782 0.0420422 0)
(8.41658 0.043905 0)
(8.41495 0.0464427 0)
(8.41335 0.0499572 0)
(8.41164 0.0542335 0)
(8.41125 0.060045 0)
(8.3302 -0.00529113 0)
(8.32719 -0.00745099 0)
(8.33129 -0.00233688 0)
(8.33588 0.00820303 0)
(8.33985 0.0174282 0)
(8.34389 0.0237012 0)
(8.34814 0.0279484 0)
(8.35261 0.0309832 0)
(8.35721 0.0332081 0)
(8.36182 0.0348568 0)
(8.36636 0.0360766 0)
(8.37078 0.0369641 0)
(8.37503 0.0375888 0)
(8.37909 0.0380057 0)
(8.38293 0.0382613 0)
(8.38654 0.038396 0)
(8.38992 0.038446 0)
(8.39304 0.038444 0)
(8.39591 0.0384202 0)
(8.39853 0.0384036 0)
(8.40087 0.0384232 0)
(8.40295 0.0385094 0)
(8.40475 0.0386952 0)
(8.40627 0.0390188 0)
(8.40749 0.0395263 0)
(8.40842 0.0402731 0)
(8.40904 0.0413323 0)
(8.40938 0.0427858 0)
(8.40947 0.0447577 0)
(8.40935 0.0473171 0)
(8.40927 0.0506869 0)
(8.40924 0.0545607 0)
(8.40976 0.0594712 0)
(8.33238 0.00231541 0)
(8.33115 0.0133861 0)
(8.33271 0.0205244 0)
(8.33533 0.0239802 0)
(8.33868 0.0262018 0)
(8.34259 0.0280826 0)
(8.34666 0.0298386 0)
(8.35071 0.0314205 0)
(8.35473 0.0327498 0)
(8.35869 0.0338178 0)
(8.36257 0.0346493 0)
(8.36634 0.0352748 0)
(8.36999 0.0357267 0)
(8.3735 0.0360377 0)
(8.37686 0.0362394 0)
(8.38004 0.0363612 0)
(8.38306 0.0364309 0)
(8.3859 0.0364748 0)
(8.38854 0.0365187 0)
(8.391 0.0365883 0)
(8.39326 0.0367104 0)
(8.39532 0.036914 0)
(8.39716 0.0372313 0)
(8.3988 0.0376996 0)
(8.40021 0.0383636 0)
(8.40141 0.0392762 0)
(8.4024 0.040503 0)
(8.40319 0.0421166 0)
(8.40384 0.0442111 0)
(8.40439 0.0468488 0)
(8.40501 0.0501465 0)
(8.40574 0.0539821 0)
(8.40679 0.0585338 0)
(8.33232 0.000909757 0)
(8.33149 0.00589532 0)
(8.33333 0.0109408 0)
(8.33629 0.015812 0)
(8.33958 0.020273 0)
(8.3431 0.0238664 0)
(8.34668 0.0266404 0)
(8.35026 0.0287918 0)
(8.35384 0.0304593 0)
(8.35738 0.0317473 0)
(8.36085 0.0327358 0)
(8.36423 0.0334838 0)
(8.36751 0.0340385 0)
(8.37067 0.0344402 0)
(8.37371 0.0347248 0)
(8.37661 0.0349243 0)
(8.37937 0.0350686 0)
(8.38198 0.0351858 0)
(8.38444 0.0353031 0)
(8.38674 0.0354477 0)
(8.38889 0.0356476 0)
(8.39088 0.0359326 0)
(8.3927 0.0363357 0)
(8.39435 0.0368942 0)
(8.39584 0.037651 0)
(8.39717 0.0386557 0)
(8.39836 0.0399668 0)
(8.39943 0.0416462 0)
(8.40042 0.0437669 0)
(8.4014 0.0463788 0)
(8.40247 0.0495536 0)
(8.40368 0.0532371 0)
(8.40514 0.0575022 0)
(8.33272 0.0017476 0)
(8.33252 0.00740703 0)
(8.33409 0.0127808 0)
(8.33659 0.0171315 0)
(8.33952 0.0206737 0)
(8.34277 0.0234966 0)
(8.34616 0.0257658 0)
(8.34958 0.0276169 0)
(8.35298 0.0291122 0)
(8.35633 0.0303007 0)
(8.3596 0.0312317 0)
(8.36279 0.031949 0)
(8.36587 0.0324916 0)
(8.36884 0.0328954 0)
(8.37169 0.0331931 0)
(8.37442 0.0334152 0)
(8.37703 0.0335903 0)
(8.3795 0.0337456 0)
(8.38185 0.0339077 0)
(8.38406 0.0341032 0)
(8.38614 0.0343598 0)
(8.38809 0.0347068 0)
(8.3899 0.0351762 0)
(8.39159 0.0358037 0)
(8.39315 0.0366295 0)
(8.3946 0.0376987 0)
(8.39596 0.039062 0)
(8.39726 0.0407717 0)
(8.39854 0.0428846 0)
(8.39986 0.0454422 0)
(8.40129 0.048491 0)
(8.40291 0.0520172 0)
(8.40475 0.0560534 0)
(8.33284 0.00183394 0)
(8.33291 0.00659971 0)
(8.33435 0.0112081 0)
(8.33668 0.0151973 0)
(8.33945 0.018669 0)
(8.34251 0.0215772 0)
(8.34571 0.0239509 0)
(8.34895 0.0258759 0)
(8.35219 0.0274204 0)
(8.35539 0.0286456 0)
(8.35852 0.0296082 0)
(8.36157 0.0303564 0)
(8.36453 0.0309313 0)
(8.36739 0.0313696 0)
(8.37013 0.0317043 0)
(8.37277 0.0319658 0)
(8.37529 0.0321825 0)
(8.37769 0.0323816 0)
(8.37998 0.0325895 0)
(8.38215 0.0328327 0)
(8.38421 0.0331386 0)
(8.38616 0.0335357 0)
(8.388 0.0340549 0)
(8.38975 0.03473 0)
(8.3914 0.035598 0)
(8.39298 0.036699 0)
(8.39452 0.0380766 0)
(8.39603 0.0397745 0)
(8.39758 0.0418369 0)
(8.39921 0.044298 0)
(8.40098 0.0471902 0)
(8.40296 0.0505172 0)
(8.40518 0.0542949 0)
(8.33293 0.00188139 0)
(8.3332 0.00629293 0)
(8.33455 0.0106089 0)
(8.33668 0.014385 0)
(8.33923 0.0176395 0)
(8.34208 0.0203632 0)
(8.3451 0.0225992 0)
(8.3482 0.0244292 0)
(8.3513 0.0259163 0)
(8.35439 0.0271119 0)
(8.35742 0.0280636 0)
(8.36038 0.0288138 0)
(8.36325 0.0294 0)
(8.36604 0.0298563 0)
(8.36872 0.0302143 0)
(8.3713 0.0305031 0)
(8.37378 0.0307504 0)
(8.37616 0.0309824 0)
(8.37843 0.031225 0)
(8.3806 0.0315041 0)
(8.38267 0.031846 0)
(8.38466 0.0322782 0)
(8.38656 0.0328298 0)
(8.38839 0.0335319 0)
(8.39015 0.0344179 0)
(8.39189 0.035523 0)
(8.3936 0.0368838 0)
(8.39534 0.0385364 0)
(8.39715 0.0405151 0)
(8.39907 0.0428473 0)
(8.40116 0.0455563 0)
(8.40348 0.0486512 0)
(8.40607 0.0521393 0)
(8.33298 0.00185035 0)
(8.33336 0.00588292 0)
(8.33462 0.00980968 0)
(8.33657 0.0132984 0)
(8.33895 0.0163424 0)
(8.34162 0.0189363 0)
(8.34447 0.0210999 0)
(8.34742 0.0228884 0)
(8.35039 0.0243527 0)
(8.35336 0.0255387 0)
(8.3563 0.0264905 0)
(8.35918 0.0272484 0)
(8.36198 0.0278484 0)
(8.36471 0.0283236 0)
(8.36735 0.0287042 0)
(8.3699 0.0290186 0)
(8.37236 0.0292932 0)
(8.37472 0.0295537 0)
(8.377 0.0298251 0)
(8.3792 0.0301322 0)
(8.38131 0.0305001 0)
(8.38335 0.0309548 0)
(8.38533 0.0315233 0)
(8.38726 0.0322337 0)
(8.38916 0.0331156 0)
(8.39105 0.0341992 0)
(8.39296 0.0355148 0)
(8.39492 0.0370915 0)
(8.39697 0.0389556 0)
(8.39917 0.041128 0)
(8.40156 0.0436248 0)
(8.4042 0.0464543 0)
(8.40714 0.049617 0)
(8.33301 0.00177793 0)
(8.33344 0.00549513 0)
(8.33463 0.00910353 0)
(8.33643 0.0123504 0)
(8.33864 0.0152025 0)
(8.34114 0.0176525 0)
(8.34383 0.0197135 0)
(8.34663 0.0214289 0)
(8.34948 0.0228439 0)
(8.35234 0.0239996 0)
(8.35518 0.0249357 0)
(8.35797 0.025689 0)
(8.36072 0.0262927 0)
(8.36339 0.0267777 0)
(8.36599 0.0271726 0)
(8.36852 0.0275042 0)
(8.37097 0.0277979 0)
(8.37334 0.0280781 0)
(8.37563 0.0283686 0)
(8.37786 0.0286928 0)
(8.38002 0.0290744 0)
(8.38213 0.0295373 0)
(8.3842 0.0301061 0)
(8.38624 0.0308058 0)
(8.38828 0.0316619 0)
(8.39033 0.0326998 0)
(8.39242 0.0339441 0)
(8.39459 0.0354174 0)
(8.39688 0.0371392 0)
(8.39934 0.0391243 0)
(8.40201 0.0413827 0)
(8.40494 0.0439187 0)
(8.40818 0.0467271 0)
(8.33303 0.00168115 0)
(8.33348 0.0051072 0)
(8.33459 0.00841527 0)
(8.33626 0.0114184 0)
(8.33832 0.0140749 0)
(8.34066 0.016377 0)
(8.3432 0.0183328 0)
(8.34586 0.0199742 0)
(8.34859 0.0213384 0)
(8.35134 0.0224611 0)
(8.35408 0.0233775 0)
(8.3568 0.024121 0)
(8.35948 0.0247227 0)
(8.3621 0.0252114 0)
(8.36467 0.025614 0)
(8.36717 0.0259559 0)
(8.36961 0.0262611 0)
(8.37199 0.0265525 0)
(8.3743 0.0268526 0)
(8.37656 0.0271832 0)
(8.37878 0.0275661 0)
(8.38096 0.0280231 0)
(8.38311 0.0285761 0)
(8.38527 0.0292468 0)
(8.38743 0.0300567 0)
(8.38963 0.0310266 0)
(8.3919 0.0321758 0)
(8.39427 0.0335212 0)
(8.39678 0.0350763 0)
(8.39947 0.0368503 0)
(8.40238 0.0388475 0)
(8.40556 0.0410674 0)
(8.40906 0.0434998 0)
(8.33304 0.00157159 0)
(8.33348 0.00472658 0)
(8.33453 0.0077595 0)
(8.33609 0.0105322 0)
(8.33801 0.0130006 0)
(8.3402 0.0151548 0)
(8.3426 0.0169992 0)
(8.34513 0.0185577 0)
(8.34773 0.0198612 0)
(8.35038 0.0209408 0)
(8.35303 0.021828 0)
(8.35567 0.022553 0)
(8.35829 0.0231443 0)
(8.36086 0.0236284 0)
(8.36339 0.0240306 0)
(8.36587 0.0243742 0)
(8.3683 0.0246819 0)
(8.37068 0.024975 0)
(8.37301 0.0252741 0)
(8.3753 0.0255995 0)
(8.37757 0.0259709 0)
(8.37982 0.0264077 0)
(8.38206 0.0269288 0)
(8.38431 0.0275528 0)
(8.3866 0.0282974 0)
(8.38894 0.0291789 0)
(8.39137 0.0302117 0)
(8.39391 0.0314077 0)
(8.39661 0.0327751 0)
(8.39949 0.034318 0)
(8.40261 0.0360359 0)
(8.406 0.0379236 0)
(8.4097 0.0399666 0)
(8.33304 0.00145623 0)
(8.33348 0.00435397 0)
(8.33447 0.0071294 0)
(8.33591 0.00967951 0)
(8.33771 0.0119625 0)
(8.33977 0.0139669 0)
(8.34204 0.0156951 0)
(8.34444 0.0171647 0)
(8.34693 0.0184011 0)
(8.34947 0.0194311 0)
(8.35204 0.0202824 0)
(8.3546 0.0209819 0)
(8.35715 0.0215555 0)
(8.35968 0.0220276 0)
(8.36217 0.0224214 0)
(8.36462 0.0227587 0)
(8.36704 0.0230601 0)
(8.36942 0.0233453 0)
(8.37177 0.0236332 0)
(8.37409 0.0239421 0)
(8.3764 0.0242894 0)
(8.37871 0.024692 0)
(8.38102 0.0251663 0)
(8.38337 0.0257273 0)
(8.38576 0.026389 0)
(8.38823 0.027164 0)
(8.39079 0.028062 0)
(8.39348 0.0290906 0)
(8.39633 0.0302533 0)
(8.39938 0.03155 0)
(8.40266 0.0329757 0)
(8.40621 0.0345212 0)
(8.41006 0.0361693 0)
(8.33304 0.0013392 0)
(8.33346 0.00399069 0)
(8.33439 0.00652355 0)
(8.33575 0.00885956 0)
(8.33743 0.0109611 0)
(8.33937 0.0128158 0)
(8.34151 0.0144242 0)
(8.3438 0.0157996 0)
(8.34618 0.0169623 0)
(8.34863 0.0179356 0)
(8.35111 0.0187434 0)
(8.3536 0.0194098 0)
(8.35608 0.019958 0)
(8.35856 0.0204104 0)
(8.36101 0.0207878 0)
(8.36344 0.0211102 0)
(8.36584 0.0213964 0)
(8.36822 0.0216642 0)
(8.37058 0.0219307 0)
(8.37293 0.0222119 0)
(8.37527 0.0225232 0)
(8.37763 0.0228788 0)
(8.38001 0.0232922 0)
(8.38243 0.0237754 0)
(8.38492 0.0243391 0)
(8.38748 0.0249919 0)
(8.39016 0.0257401 0)
(8.39296 0.0265868 0)
(8.39594 0.0275321 0)
(8.39911 0.0285719 0)
(8.40251 0.029698 0)
(8.40617 0.0308979 0)
(8.41011 0.0321526 0)
(8.33304 0.00122287 0)
(8.33344 0.00363726 0)
(8.33432 0.00593948 0)
(8.33559 0.00806866 0)
(8.33717 0.00999191 0)
(8.339 0.0116967 0)
(8.34103 0.0131823 0)
(8.34321 0.0144585 0)
(8.34549 0.0155418 0)
(8.34784 0.0164518 0)
(8.35024 0.0172093 0)
(8.35266 0.0178356 0)
(8.35508 0.0183513 0)
(8.35751 0.0187763 0)
(8.35992 0.0191296 0)
(8.36232 0.019429 0)
(8.36471 0.0196914 0)
(8.36708 0.0199329 0)
(8.36945 0.0201682 0)
(8.37181 0.0204114 0)
(8.37419 0.0206754 0)
(8.37659 0.0209722 0)
(8.37902 0.0213124 0)
(8.3815 0.0217051 0)
(8.38406 0.0221579 0)
(8.3867 0.022676 0)
(8.38946 0.0232624 0)
(8.39236 0.0239169 0)
(8.39542 0.0246362 0)
(8.39867 0.0254135 0)
(8.40215 0.0262379 0)
(8.40587 0.0270947 0)
(8.40986 0.027964 0)
(8.33304 0.00110849 0)
(8.33342 0.0032938 0)
(8.33425 0.00537522 0)
(8.33544 0.00730411 0)
(8.33693 0.00905222 0)
(8.33866 0.0106073 0)
(8.34059 0.0119677 0)
(8.34267 0.0131404 0)
(8.34485 0.0141389 0)
(8.34712 0.0149796 0)
(8.34944 0.0156804 0)
(8.35178 0.0162597 0)
(8.35415 0.0167358 0)
(8.35653 0.0171262 0)
(8.3589 0.0174477 0)
(8.36127 0.0177163 0)
(8.36364 0.0179469 0)
(8.366 0.0181532 0)
(8.36837 0.0183483 0)
(8.37075 0.0185439 0)
(8.37315 0.0187507 0)
(8.37557 0.0189784 0)
(8.37804 0.0192348 0)
(8.38057 0.0195264 0)
(8.38318 0.019858 0)
(8.38588 0.0202319 0)
(8.3887 0.0206481 0)
(8.39165 0.0211038 0)
(8.39477 0.0215932 0)
(8.39807 0.022107 0)
(8.40157 0.0226327 0)
(8.40532 0.023154 0)
(8.4093 0.0236513 0)
(8.33303 0.000996663 0)
(8.3334 0.00296006 0)
(8.33418 0.00482883 0)
(8.3353 0.00656313 0)
(8.33671 0.00813884 0)
(8.33835 0.00954439 0)
(8.34018 0.0107773 0)
(8.34217 0.0118429 0)
(8.34427 0.0127517 0)
(8.34645 0.0135174 0)
(8.34869 0.0141553 0)
(8.35098 0.0146811 0)
(8.35329 0.0151108 0)
(8.35561 0.0154597 0)
(8.35795 0.0157424 0)
(8.36029 0.0159728 0)
(8.36263 0.0161637 0)
(8.36499 0.0163271 0)
(8.36735 0.0164737 0)
(8.36973 0.0166132 0)
(8.37214 0.0167543 0)
(8.37458 0.016904 0)
(8.37708 0.017068 0)
(8.37963 0.0172503 0)
(8.38227 0.0174531 0)
(8.385 0.0176764 0)
(8.38785 0.0179176 0)
(8.39084 0.0181719 0)
(8.39397 0.0184314 0)
(8.39728 0.0186854 0)
(8.40078 0.0189201 0)
(8.4045 0.0191185 0)
(8.40843 0.0192618 0)
(8.33303 0.000887597 0)
(8.33338 0.00263555 0)
(8.33411 0.00429852 0)
(8.33518 0.00584317 0)
(8.33651 0.00724896 0)
(8.33807 0.00850518 0)
(8.33982 0.00960897 0)
(8.34172 0.010564 0)
(8.34373 0.0113788 0)
(8.34584 0.0120645 0)
(8.34801 0.0126339 0)
(8.35023 0.0131004 0)
(8.35248 0.0134775 0)
(8.35476 0.0137785 0)
(8.35706 0.0140158 0)
(8.35937 0.0142012 0)
(8.36169 0.0143456 0)
(8.36402 0.0144588 0)
(8.36637 0.0145498 0)
(8.36875 0.014626 0)
(8.37116 0.0146941 0)
(8.37361 0.0147589 0)
(8.37611 0.014824 0)
(8.37868 0.0148912 0)
(8.38133 0.0149605 0)
(8.38407 0.0150298 0)
(8.38693 0.0150947 0)
(8.38991 0.0151486 0)
(8.39303 0.0151823 0)
(8.39632 0.015184 0)
(8.39978 0.0151395 0)
(8.40343 0.0150317 0)
(8.40727 0.0148429 0)
(8.33303 0.000781257 0)
(8.33336 0.0023196 0)
(8.33405 0.00378252 0)
(8.33506 0.00514169 0)
(8.33632 0.00637958 0)
(8.33781 0.00748649 0)
(8.33948 0.00845933 0)
(8.3413 0.00930069 0)
(8.34324 0.0100172 0)
(8.34528 0.0106179 0)
(8.34738 0.0111133 0)
(8.34954 0.0115147 0)
(8.35174 0.0118334 0)
(8.35397 0.0120803 0)
(8.35623 0.0122661 0)
(8.3585 0.0124004 0)
(8.36079 0.0124921 0)
(8.36311 0.0125492 0)
(8.36544 0.0125785 0)
(8.3678 0.0125857 0)
(8.3702 0.0125752 0)
(8.37264 0.0125502 0)
(8.37514 0.0125122 0)
(8.3777 0.012461 0)
(8.38034 0.0123949 0)
(8.38308 0.01231 0)
(8.38591 0.0122006 0)
(8.38886 0.0120589 0)
(8.39195 0.0118746 0)
(8.39517 0.0116356 0)
(8.39856 0.0113275 0)
(8.40211 0.0109337 0)
(8.40582 0.010438 0)
(8.33303 0.000677487 0)
(8.33334 0.00201145 0)
(8.334 0.00327927 0)
(8.33496 0.00445664 0)
(8.33616 0.00552862 0)
(8.33758 0.00648658 0)
(8.33918 0.00732744 0)
(8.34093 0.00805287 0)
(8.3428 0.00866795 0)
(8.34477 0.00917994 0)
(8.34681 0.00959727 0)
(8.34891 0.00992899 0)
(8.35106 0.0101843 0)
(8.35325 0.0103723 0)
(8.35546 0.0105014 0)
(8.35769 0.0105794 0)
(8.35995 0.0106133 0)
(8.36224 0.0106092 0)
(8.36455 0.0105721 0)
(8.36689 0.0105058 0)
(8.36927 0.010413 0)
(8.37169 0.0102949 0)
(8.37417 0.0101515 0)
(8.3767 0.00998101 0)
(8.37932 0.00978012 0)
(8.38201 0.00954377 0)
(8.3848 0.00926508 0)
(8.3877 0.00893537 0)
(8.39072 0.00854408 0)
(8.39386 0.00807891 0)
(8.39713 0.0075258 0)
(8.40055 0.00686899 0)
(8.40411 0.00609397 0)
(8.33303 0.000576057 0)
(8.33332 0.00171021 0)
(8.33395 0.00278683 0)
(8.33486 0.00378484 0)
(8.33601 0.00469151 0)
(8.33737 0.00549936 0)
(8.3389 0.00620555 0)
(8.34059 0.0068112 0)
(8.3424 0.00732026 0)
(8.34431 0.00773849 0)
(8.34629 0.00807247 0)
(8.34834 0.00832933 0)
(8.35044 0.00851636 0)
(8.35257 0.00864058 0)
(8.35474 0.00870852 0)
(8.35694 0.00872607 0)
(8.35916 0.00869835 0)
(8.36141 0.00862956 0)
(8.36369 0.00852299 0)
(8.366 0.00838085 0)
(8.36835 0.0082041 0)
(8.37074 0.00799246 0)
(8.37318 0.00774433 0)
(8.37568 0.00745667 0)
(8.37824 0.00712496 0)
(8.38088 0.00674316 0)
(8.38361 0.00630366 0)
(8.38643 0.00579734 0)
(8.38935 0.00521353 0)
(8.39238 0.00454019 0)
(8.39552 0.00376388 0)
(8.39878 0.0028699 0)
(8.40215 0.00184554 0)
(8.33303 0.000476754 0)
(8.33331 0.00141541 0)
(8.33391 0.00230498 0)
(8.33478 0.00312725 0)
(8.33588 0.00387156 0)
(8.33718 0.00453153 0)
(8.33866 0.00510448 0)
(8.34028 0.00559097 0)
(8.34204 0.00599388 0)
(8.34389 0.00631749 0)
(8.34582 0.0065664 0)
(8.34781 0.00674584 0)
(8.34986 0.00686136 0)
(8.35195 0.00691826 0)
(8.35408 0.00692135 0)
(8.35623 0.00687478 0)
(8.35842 0.00678201 0)
(8.36063 0.00664551 0)
(8.36287 0.00646697 0)
(8.36514 0.00624708 0)
(8.36744 0.0059854 0)
(8.36979 0.00568032 0)
(8.37218 0.00532904 0)
(8.37462 0.00492742 0)
(8.37713 0.00447007 0)
(8.37969 0.0039503 0)
(8.38233 0.00336004 0)
(8.38505 0.00269002 0)
(8.38785 0.00192978 0)
(8.39074 0.00106774 0)
(8.39372 9.13592e-05 0)
(8.3968 -0.00101291 0)
(8.39997 -0.00225599 0)
(8.33303 0.000379209 0)
(8.33329 0.001125 0)
(8.33387 0.00182799 0)
(8.3347 0.00247211 0)
(8.33576 0.00304888 0)
(8.33701 0.00355371 0)
(8.33844 0.00398498 0)
(8.34002 0.00434346 0)
(8.34171 0.00463164 0)
(8.34351 0.0048532 0)
(8.34539 0.00501119 0)
(8.34734 0.00510897 0)
(8.34934 0.00515005 0)
(8.35138 0.00513768 0)
(8.35346 0.00507472 0)
(8.35558 0.00496354 0)
(8.35772 0.00480584 0)
(8.35988 0.00460246 0)
(8.36208 0.00435391 0)
(8.3643 0.00405933 0)
(8.36655 0.00371684 0)
(8.36884 0.00332364 0)
(8.37117 0.00287601 0)
(8.37354 0.00236895 0)
(8.37597 0.00179637 0)
(8.37844 0.00115117 0)
(8.38098 0.000425186 0)
(8.38358 -0.000390787 0)
(8.38624 -0.00130686 0)
(8.38897 -0.00233388 0)
(8.39178 -0.0034834 0)
(8.39465 -0.00476767 0)
(8.3976 -0.00619584 0)
(8.33302 0.00028377 0)
(8.33328 0.000843144 0)
(8.33383 0.00136894 0)
(8.33463 0.001847 0)
(8.33564 0.00226997 0)
(8.33685 0.00263358 0)
(8.33823 0.00293596 0)
(8.33976 0.00317723 0)
(8.34142 0.00335928 0)
(8.34317 0.00348366 0)
(8.34501 0.00355093 0)
(8.34691 0.00356422 0)
(8.34887 0.00352654 0)
(8.35087 0.00343991 0)
(8.3529 0.00330583 0)
(8.35497 0.00312524 0)
(8.35706 0.00289871 0)
(8.35918 0.00262429 0)
(8.36133 0.00230201 0)
(8.36349 0.0019302 0)
(8.36569 0.00150593 0)
(8.36791 0.00102544 0)
(8.37017 0.000483969 0)
(8.37245 -0.000123931 0)
(8.37478 -0.000804699 0)
(8.37715 -0.0015657 0)
(8.37957 -0.00241507 0)
(8.38203 -0.00336174 0)
(8.38454 -0.0044153 0)
(8.3871 -0.00558581 0)
(8.38971 -0.00688376 0)
(8.39237 -0.00832013 0)
(8.39507 -0.00990247 0)
(8.33302 0.000187996 0)
(8.33327 0.000552504 0)
(8.3338 0.000881566 0)
(8.33457 0.00116448 0)
(8.33556 0.00139952 0)
(8.33673 0.00158738 0)
(8.33808 0.00172907 0)
(8.33956 0.00182514 0)
(8.34117 0.00187994 0)
(8.34288 0.00189893 0)
(8.34467 0.00187607 0)
(8.34653 0.0018097 0)
(8.34844 0.00170022 0)
(8.3504 0.00154774 0)
(8.35239 0.0013518 0)
(8.35441 0.00111168 0)
(8.35645 0.000825869 0)
(8.35852 0.000494331 0)
(8.3606 0.000113109 0)
(8.36271 -0.000321163 0)
(8.36483 -0.000811988 0)
(8.36698 -0.00136376 0)
(8.36915 -0.00198183 0)
(8.37134 -0.00267203 0)
(8.37357 -0.00344098 0)
(8.37582 -0.00429604 0)
(8.3781 -0.00524518 0)
(8.38041 -0.00629684 0)
(8.38275 -0.00745992 0)
(8.38512 -0.00874359 0)
(8.38753 -0.0101572 0)
(8.38996 -0.0117104 0)
(8.39241 -0.0134093 0)
(8.33302 0.000101824 0)
(8.33324 0.000310396 0)
(8.33374 0.000501288 0)
(8.33447 0.000658424 0)
(8.33542 0.000775317 0)
(8.33656 0.000849901 0)
(8.33788 0.000882631 0)
(8.33934 0.000875458 0)
(8.34093 0.000825775 0)
(8.34262 0.000729992 0)
(8.34438 0.000597778 0)
(8.34621 0.000431079 0)
(8.34808 0.000228362 0)
(8.35 -1.16576e-05 0)
(8.35195 -0.000290506 0)
(8.35392 -0.000610076 0)
(8.35591 -0.000973026 0)
(8.35792 -0.00138038 0)
(8.35995 -0.00183705 0)
(8.36199 -0.00234729 0)
(8.36404 -0.00291532 0)
(8.3661 -0.00354618 0)
(8.36817 -0.00424543 0)
(8.37026 -0.0050194 0)
(8.37237 -0.00587488 0)
(8.37449 -0.0068191 0)
(8.37662 -0.00785975 0)
(8.37877 -0.00900481 0)
(8.38093 -0.0102625 0)
(8.38311 -0.0116412 0)
(8.38529 -0.0131492 0)
(8.38749 -0.0147951 0)
(8.38969 -0.0165835 0)
(8.33303 -1.05933e-05 0)
(8.33328 -5.35093e-05 0)
(8.33378 -0.000137301 0)
(8.3345 -0.000256193 0)
(8.33542 -0.000395747 0)
(8.33653 -0.00054587 0)
(8.33781 -0.000702005 0)
(8.33923 -0.000863314 0)
(8.34076 -0.00103625 0)
(8.34239 -0.00122964 0)
(8.34411 -0.00143907 0)
(8.3459 -0.00166715 0)
(8.34773 -0.00191929 0)
(8.34961 -0.00220009 0)
(8.35151 -0.00251367 0)
(8.35344 -0.00286423 0)
(8.35538 -0.00325577 0)
(8.35733 -0.00369408 0)
(8.35929 -0.0041826 0)
(8.36125 -0.00472585 0)
(8.36322 -0.00532908 0)
(8.3652 -0.00599784 0)
(8.36717 -0.00673805 0)
(8.36915 -0.007556 0)
(8.37113 -0.00845832 0)
(8.37312 -0.00945191 0)
(8.3751 -0.0105439 0)
(8.37708 -0.0117417 0)
(8.37906 -0.0130527 0)
(8.38103 -0.0144841 0)
(8.383 -0.0160433 0)
(8.38495 -0.0177374 0)
(8.38689 -0.01957 0)
(8.333 -4.62259e-05 0)
(8.33316 -0.000102256 0)
(8.33358 -0.000166128 0)
(8.33425 -0.000274499 0)
(8.33516 -0.000437859 0)
(8.33628 -0.000652378 0)
(8.33757 -0.000908338 0)
(8.33901 -0.00119656 0)
(8.34057 -0.00150675 0)
(8.34222 -0.00183006 0)
(8.34394 -0.00217108 0)
(8.34572 -0.00253188 0)
(8.34753 -0.00291373 0)
(8.34938 -0.00331896 0)
(8.35125 -0.00375084 0)
(8.35313 -0.00421322 0)
(8.35501 -0.00471042 0)
(8.3569 -0.00524723 0)
(8.35879 -0.00582841 0)
(8.36068 -0.00645943 0)
(8.36256 -0.00714613 0)
(8.36444 -0.00789451 0)
(8.36631 -0.00871085 0)
(8.36817 -0.00960164 0)
(8.37001 -0.0105736 0)
(8.37185 -0.0116336 0)
(8.37367 -0.0127885 0)
(8.37547 -0.0140453 0)
(8.37726 -0.0154108 0)
(8.37902 -0.0168918 0)
(8.38076 -0.0184946 0)
(8.38247 -0.0202257 0)
(8.38415 -0.0220877 0)
(8.33306 -0.000260024 0)
(8.33336 -0.000855279 0)
(8.33385 -0.00152229 0)
(8.3345 -0.00218994 0)
(8.33534 -0.00280455 0)
(8.33637 -0.00334779 0)
(8.33757 -0.00382207 0)
(8.33893 -0.00423895 0)
(8.34041 -0.00461263 0)
(8.342 -0.00495824 0)
(8.34367 -0.00529053 0)
(8.3454 -0.00562066 0)
(8.34717 -0.00595829 0)
(8.34898 -0.00631227 0)
(8.3508 -0.00669044 0)
(8.35264 -0.00709974 0)
(8.35448 -0.00754649 0)
(8.35631 -0.00803677 0)
(8.35814 -0.00857627 0)
(8.35996 -0.0091706 0)
(8.36176 -0.00982538 0)
(8.36355 -0.0105463 0)
(8.36532 -0.0113391 0)
(8.36706 -0.0122097 0)
(8.36878 -0.0131641 0)
(8.37048 -0.0142082 0)
(8.37214 -0.015348 0)
(8.37378 -0.0165894 0)
(8.37538 -0.0179383 0)
(8.37694 -0.0194002 0)
(8.37846 -0.0209803 0)
(8.37993 -0.0226837 0)
(8.38135 -0.0245122 0)
(8.33293 -8.58538e-06 0)
(8.33285 6.51891e-05 0)
(8.33311 6.19053e-05 0)
(8.33375 -0.000137097 0)
(8.3347 -0.000536056 0)
(8.3359 -0.0010762 0)
(8.33727 -0.00169574 0)
(8.33877 -0.00235187 0)
(8.34038 -0.00301841 0)
(8.34205 -0.00368019 0)
(8.34377 -0.00433093 0)
(8.34552 -0.00496987 0)
(8.3473 -0.00559969 0)
(8.34909 -0.00622514 0)
(8.35088 -0.00685224 0)
(8.35267 -0.00748765 0)
(8.35444 -0.00813839 0)
(8.35621 -0.00881164 0)
(8.35795 -0.00951453 0)
(8.35968 -0.0102542 0)
(8.36138 -0.0110377 0)
(8.36305 -0.0118722 0)
(8.36469 -0.0127645 0)
(8.3663 -0.0137214 0)
(8.36788 -0.0147497 0)
(8.36941 -0.0158558 0)
(8.3709 -0.0170461 0)
(8.37235 -0.0183267 0)
(8.37375 -0.0197032 0)
(8.3751 -0.0211811 0)
(8.37639 -0.0227654 0)
(8.37762 -0.0244609 0)
(8.37879 -0.0262691 0)
(8.33317 -0.000727747 0)
(8.33369 -0.00252369 0)
(8.33411 -0.00439687 0)
(8.33453 -0.00597392 0)
(8.33513 -0.00718581 0)
(8.33598 -0.00809155 0)
(8.33708 -0.00876758 0)
(8.33837 -0.0092796 0)
(8.33982 -0.00968015 0)
(8.34139 -0.0100103 0)
(8.34305 -0.0103018 0)
(8.34476 -0.0105786 0)
(8.34651 -0.0108582 0)
(8.34828 -0.011154 0)
(8.35006 -0.0114761 0)
(8.35184 -0.0118326 0)
(8.3536 -0.0122303 0)
(8.35534 -0.0126749 0)
(8.35705 -0.0131715 0)
(8.35873 -0.013725 0)
(8.36038 -0.01434 0)
(8.36199 -0.0150211 0)
(8.36355 -0.0157729 0)
(8.36507 -0.0165998 0)
(8.36653 -0.0175063 0)
(8.36795 -0.018497 0)
(8.36931 -0.0195763 0)
(8.3706 -0.0207482 0)
(8.37184 -0.022017 0)
(8.37301 -0.0233863 0)
(8.3741 -0.0248597 0)
(8.37512 -0.0264406 0)
(8.37607 -0.0281292 0)
(8.33263 0.00060941 0)
(8.33173 0.00209619 0)
(8.33176 0.00307024 0)
(8.33267 0.00309576 0)
(8.33401 0.00234453 0)
(8.33554 0.00118991 0)
(8.33718 -0.000126713 0)
(8.33887 -0.00148092 0)
(8.34059 -0.00280632 0)
(8.34233 -0.00406785 0)
(8.34408 -0.00525154 0)
(8.34581 -0.00635677 0)
(8.34754 -0.00739017 0)
(8.34926 -0.00836212 0)
(8.35095 -0.00928468 0)
(8.35262 -0.0101704 0)
(8.35427 -0.0110316 0)
(8.35588 -0.01188 0)
(8.35746 -0.0127268 0)
(8.35901 -0.0135823 0)
(8.36051 -0.0144561 0)
(8.36196 -0.0153573 0)
(8.36337 -0.0162942 0)
(8.36472 -0.0172746 0)
(8.36602 -0.0183057 0)
(8.36725 -0.0193944 0)
(8.36843 -0.0205467 0)
(8.36953 -0.0217686 0)
(8.37056 -0.0230652 0)
(8.37152 -0.0244413 0)
(8.3724 -0.025901 0)
(8.37319 -0.0274482 0)
(8.3739 -0.029084 0)
(8.33358 -0.00191053 0)
(8.33471 -0.00675764 0)
(8.33452 -0.0114453 0)
(8.33384 -0.0145794 0)
(8.33362 -0.0162893 0)
(8.33407 -0.0171752 0)
(8.33502 -0.0175744 0)
(8.3363 -0.0176811 0)
(8.33781 -0.0176306 0)
(8.33947 -0.0175118 0)
(8.34123 -0.0173802 0)
(8.34305 -0.0172698 0)
(8.34488 -0.0172014 0)
(8.34672 -0.0171868 0)
(8.34855 -0.0172328 0)
(8.35035 -0.0173432 0)
(8.35211 -0.01752 0)
(8.35382 -0.0177643 0)
(8.35549 -0.0180768 0)
(8.3571 -0.0184585 0)
(8.35865 -0.0189103 0)
(8.36015 -0.0194334 0)
(8.36157 -0.0200291 0)
(8.36293 -0.0206991 0)
(8.36421 -0.0214454 0)
(8.36542 -0.0222697 0)
(8.36655 -0.0231743 0)
(8.36759 -0.024161 0)
(8.36855 -0.025232 0)
(8.36942 -0.0263891 0)
(8.37019 -0.0276339 0)
(8.37087 -0.0289684 0)
(8.37145 -0.0303917 0)
(8.33162 0.00372175 0)
(8.32827 0.0103262 0)
(8.32842 0.0135299 0)
(8.33102 0.0135277 0)
(8.33373 0.0115515 0)
(8.33602 0.00878018 0)
(8.33807 0.00584611 0)
(8.33996 0.00299733 0)
(8.34174 0.000345085 0)
(8.34344 -0.0020639 0)
(8.34509 -0.0042253 0)
(8.3467 -0.00615638 0)
(8.34828 -0.00788303 0)
(8.34984 -0.0094338 0)
(8.35138 -0.010837 0)
(8.35291 -0.0121191 0)
(8.35441 -0.0133042 0)
(8.35589 -0.0144135 0)
(8.35734 -0.015466 0)
(8.35875 -0.0164784 0)
(8.36012 -0.0174652 0)
(8.36145 -0.0184393 0)
(8.36272 -0.0194122 0)
(8.36394 -0.020394 0)
(8.36509 -0.0213936 0)
(8.36617 -0.022419 0)
(8.36717 -0.0234772 0)
(8.3681 -0.0245747 0)
(8.36894 -0.0257168 0)
(8.36969 -0.0269085 0)
(8.37035 -0.028154 0)
(8.37091 -0.0294569 0)
(8.37137 -0.0308187 0)
(8.3343 -0.00639974 0)
(8.33465 -0.0205794 0)
(8.33081 -0.0297401 0)
(8.32686 -0.033644 0)
(8.32497 -0.0344875 0)
(8.32509 -0.0338888 0)
(8.32634 -0.0326584 0)
(8.32816 -0.0311984 0)
(8.33033 -0.0297312 0)
(8.33271 -0.0283734 0)
(8.33519 -0.0271772 0)
(8.33772 -0.0261603 0)
(8.34025 -0.0253223 0)
(8.34276 -0.0246542 0)
(8.34523 -0.0241431 0)
(8.34764 -0.0237752 0)
(8.34999 -0.0235372 0)
(8.35227 -0.0234172 0)
(8.35447 -0.0234048 0)
(8.3566 -0.0234914 0)
(8.35863 -0.0236697 0)
(8.36058 -0.0239342 0)
(8.36243 -0.0242801 0)
(8.36419 -0.0247042 0)
(8.36585 -0.0252038 0)
(8.3674 -0.0257771 0)
(8.36884 -0.0264228 0)
(8.37017 -0.0271399 0)
(8.37139 -0.027928 0)
(8.37248 -0.0287867 0)
(8.37346 -0.0297157 0)
(8.37432 -0.0307152 0)
(8.37506 -0.0317833 0)
(8.32884 0.0226128 0)
(8.32236 0.0428222 0)
(8.3267 0.044077 0)
(8.33336 0.0381451 0)
(8.33795 0.0308137 0)
(8.34089 0.0237005 0)
(8.34328 0.0171089 0)
(8.34555 0.011207 0)
(8.34784 0.00604933 0)
(8.3502 0.00158706 0)
(8.35267 -0.00226127 0)
(8.35524 -0.00557869 0)
(8.35789 -0.00844401 0)
(8.3606 -0.0109289 0)
(8.36335 -0.013096 0)
(8.3661 -0.014999 0)
(8.36885 -0.0166838 0)
(8.37157 -0.018189 0)
(8.37424 -0.0195476 0)
(8.37685 -0.0207871 0)
(8.3794 -0.0219314 0)
(8.38186 -0.0230004 0)
(8.38423 -0.0240114 0)
(8.38649 -0.0249791 0)
(8.38866 -0.0259164 0)
(8.3907 -0.0268341 0)
(8.39263 -0.0277418 0)
(8.39444 -0.028648 0)
(8.39613 -0.0295599 0)
(8.39768 -0.0304837 0)
(8.3991 -0.0314253 0)
(8.40038 -0.0323892 0)
(8.40154 -0.0333794 0)
(8.32437 -0.0380107 0)
(8.29387 -0.0682602 0)
(8.27222 -0.0715856 0)
(8.26676 -0.068433 0)
(8.27363 -0.0640225 0)
(8.28625 -0.0591559 0)
(8.301 -0.0544477 0)
(8.31632 -0.0502507 0)
(8.33137 -0.0466249 0)
(8.34568 -0.0435451 0)
(8.35905 -0.0409665 0)
(8.37143 -0.0388305 0)
(8.38282 -0.0370759 0)
(8.39326 -0.0356469 0)
(8.40281 -0.0344946 0)
(8.41154 -0.0335773 0)
(8.41952 -0.0328599 0)
(8.4268 -0.0323135 0)
(8.43345 -0.0319143 0)
(8.43951 -0.0316429 0)
(8.44504 -0.0314837 0)
(8.45008 -0.0314239 0)
(8.45466 -0.0314534 0)
(8.45883 -0.0315642 0)
(8.46261 -0.0317497 0)
(8.46603 -0.0320047 0)
(8.46912 -0.0323252 0)
(8.4719 -0.0327078 0)
(8.47438 -0.0331501 0)
(8.4766 -0.0336499 0)
(8.47856 -0.0342054 0)
(8.48029 -0.0348151 0)
(8.48179 -0.0354764 0)
(8.34002 0.156995 0)
(8.38201 0.14901 0)
(8.40254 0.103411 0)
(8.39954 0.0645308 0)
(8.38368 0.0358937 0)
(8.36111 0.0155363 0)
(8.33468 0.00111712 0)
(8.30635 -0.00921505 0)
(8.2773 -0.0167098 0)
(8.24816 -0.0222009 0)
(8.21926 -0.0262588 0)