/*--------------------------------*- C++ -*----------------------------------*\
| =========                 |                                                 |
| \\      /  F ield         | OpenFOAM: The Open Source CFD Toolbox           |
|  \\    /   O peration     | Version:  2.1.1                                 |
|   \\  /    A nd           | Web:      www.OpenFOAM.org                      |
|    \\/     M anipulation  |                                                 |
\*---------------------------------------------------------------------------*/
FoamFile
{
    version     2.0;
    format      ascii;
    class       volScalarField;
    location    "0.06";
    object      nuSgs;
}
// * * * * * * * * * * * * * * * * * * * * * * * * * * * * * * * * * * * * * //

dimensions      [0 2 -1 0 0 0 0];

internalField   nonuniform List<scalar> 
6820
(
0.000556015
0.000457402
0.000368113
0.000306066
0.000268833
0.000243172
0.000224269
0.000209796
0.000198091
0.000188244
0.000179738
0.000172242
0.000165529
0.000159443
0.000153867
0.000148712
0.000143909
0.000139401
0.000135142
0.000131093
0.000127219
0.000123488
0.00011987
0.000116334
0.000112852
0.00010939
0.000105913
0.00010238
9.8743e-05
9.49398e-05
9.0914e-05
8.63485e-05
8.20262e-05
0.000103499
0.000170669
0.00022366
0.000240032
0.000235275
0.000224912
0.000213214
0.000201926
0.00019169
0.000182521
0.000174302
0.000166897
0.000160183
0.000154056
0.000148432
0.000143241
0.000138425
0.000133936
0.000129733
0.000125783
0.000122055
0.000118526
0.000115175
0.000111983
0.000108937
0.000106022
0.00010323
0.000100549
9.79856e-05
9.5516e-05
9.32481e-05
9.10333e-05
9.00936e-05
3.67739e-05
2.84722e-05
4.56259e-05
8.23214e-05
0.000107978
0.000123591
0.00013204
0.000135915
0.000137043
0.000136495
0.000134911
0.00013269
0.00013008
0.000127245
0.000124293
0.000121295
0.0001183
0.000115338
0.000112432
0.000109596
0.00010684
0.000104171
0.000101593
9.91102e-05
9.67269e-05
9.44478e-05
9.22801e-05
9.02347e-05
8.83307e-05
8.65961e-05
8.50982e-05
8.39389e-05
8.34969e-05
2.07361e-05
2.86797e-05
2.65523e-05
1.50731e-05
3.64281e-06
1.38799e-05
2.57295e-05
3.55767e-05
4.35249e-05
4.98485e-05
5.48231e-05
5.86928e-05
6.16601e-05
6.38831e-05
6.54965e-05
6.66116e-05
6.73205e-05
6.76992e-05
6.7811e-05
6.77089e-05
6.74376e-05
6.70354e-05
6.65357e-05
6.59685e-05
6.53617e-05
6.47424e-05
6.41391e-05
6.35829e-05
6.31125e-05
6.27763e-05
6.26453e-05
6.28264e-05
6.34911e-05
1.44205e-05
1.75801e-05
2.25999e-05
2.42957e-05
2.397e-05
2.19936e-05
1.9106e-05
1.58457e-05
1.24454e-05
9.05428e-06
5.78004e-06
2.70615e-06
6.88933e-07
3.02108e-06
5.43717e-06
7.64219e-06
9.63193e-06
1.14174e-05
1.30144e-05
1.44409e-05
1.57161e-05
1.68601e-05
1.78938e-05
1.88388e-05
1.97182e-05
2.05572e-05
2.13838e-05
2.22309e-05
2.31371e-05
2.41519e-05
2.53263e-05
2.67431e-05
2.84202e-05
1.09211e-05
1.24928e-05
1.38156e-05
1.43239e-05
1.5107e-05
1.57434e-05
1.61175e-05
1.63225e-05
1.63621e-05
1.62412e-05
1.59836e-05
1.56124e-05
1.51504e-05
1.46117e-05
1.40146e-05
1.33753e-05
1.27079e-05
1.20236e-05
1.13309e-05
1.06356e-05
9.94119e-06
9.24874e-06
8.55719e-06
7.8632e-06
7.16114e-06
6.44288e-06
5.69787e-06
4.91336e-06
4.07852e-06
3.19339e-06
2.33458e-06
1.847e-06
2.47282e-06
8.24659e-06
9.42393e-06
1.02403e-05
1.00369e-05
9.84592e-06
9.66569e-06
9.47905e-06
9.38832e-06
9.38247e-06
9.41735e-06
9.46603e-06
9.51067e-06
9.53972e-06
9.55086e-06
9.54147e-06
9.51021e-06
9.45694e-06
9.38224e-06
9.28701e-06
9.17219e-06
9.0386e-06
8.88678e-06
8.71684e-06
8.52843e-06
8.32063e-06
8.09205e-06
7.84112e-06
7.56689e-06
7.27163e-06
6.96485e-06
6.67696e-06
6.47375e-06
6.48815e-06
6.36417e-06
7.40589e-06
8.20903e-06
8.07029e-06
7.75806e-06
7.41628e-06
7.03594e-06
6.70831e-06
6.45217e-06
6.24682e-06
6.07942e-06
5.9409e-06
5.82224e-06
5.71667e-06
5.61969e-06
5.52796e-06
5.43867e-06
5.34952e-06
5.25858e-06
5.16422e-06
5.06498e-06
4.95953e-06
4.84665e-06
4.72527e-06
4.59463e-06
4.4547e-06
4.30704e-06
4.15653e-06
4.01477e-06
3.90567e-06
3.87429e-06
3.99172e-06
4.34747e-06
5.00526e-06
5.85713e-06
6.53508e-06
6.52641e-06
6.35653e-06
6.14676e-06
5.861e-06
5.57153e-06
5.31675e-06
5.09291e-06
4.89515e-06
4.71991e-06
4.5622e-06
4.41765e-06
4.2831e-06
4.15605e-06
4.03437e-06
3.91627e-06
3.80021e-06
3.68478e-06
3.56871e-06
3.45088e-06
3.33038e-06
3.20672e-06
3.08026e-06
2.9529e-06
2.82937e-06
2.71951e-06
2.64142e-06
2.62475e-06
2.71182e-06
2.94552e-06
3.36408e-06
4.00139e-06
4.70713e-06
5.30275e-06
5.37088e-06
5.26639e-06
5.11595e-06
4.89697e-06
4.66437e-06
4.45578e-06
4.27026e-06
4.10324e-06
3.95243e-06
3.81461e-06
3.68667e-06
3.56634e-06
3.45191e-06
3.3419e-06
3.23506e-06
3.13031e-06
3.02671e-06
2.92353e-06
2.82028e-06
2.71695e-06
2.61423e-06
2.51408e-06
2.42051e-06
2.34083e-06
2.28716e-06
2.27784e-06
2.3368e-06
2.49085e-06
2.75731e-06
3.15206e-06
3.24367e-06
3.83606e-06
4.3608e-06
4.46968e-06
4.41313e-06
4.31117e-06
4.14805e-06
3.96056e-06
3.78333e-06
3.62069e-06
3.47121e-06
3.33481e-06
3.21e-06
3.09461e-06
2.98682e-06
2.88515e-06
2.78832e-06
2.69522e-06
2.60502e-06
2.51709e-06
2.43115e-06
2.34735e-06
2.26645e-06
2.19023e-06
2.12189e-06
2.06675e-06
2.03298e-06
2.03206e-06
2.07848e-06
2.18752e-06
2.37306e-06
2.63909e-06
2.99335e-06
2.65896e-06
3.16215e-06
3.6342e-06
3.77749e-06
3.76597e-06
3.70196e-06
3.57795e-06
3.42217e-06
3.2676e-06
3.12259e-06
2.98763e-06
2.86345e-06
2.74946e-06
2.64412e-06
2.54606e-06
2.45412e-06
2.36735e-06
2.28497e-06
2.20649e-06
2.13167e-06
2.0607e-06
1.99427e-06
1.93381e-06
1.88177e-06
1.84196e-06
1.81991e-06
1.823e-06
1.86013e-06
1.9408e-06
2.07313e-06
2.26322e-06
2.50916e-06
2.81583e-06
2.19762e-06
2.63295e-06
3.06619e-06
3.2339e-06
3.25715e-06
3.22295e-06
3.13195e-06
3.00639e-06
2.87509e-06
2.74795e-06
2.62691e-06
2.51365e-06
2.40868e-06
2.31141e-06
2.22108e-06
2.13702e-06
2.05863e-06
1.98548e-06
1.91737e-06
1.8544e-06
1.79712e-06
1.74658e-06
1.70459e-06
1.67382e-06
1.65798e-06
1.66183e-06
1.69104e-06
1.75146e-06
1.84846e-06
1.98568e-06
2.16508e-06
2.38252e-06
2.64225e-06
1.82602e-06
2.21083e-06
2.61546e-06
2.80244e-06
2.85591e-06
2.84825e-06
2.78513e-06
2.68488e-06
2.57282e-06
2.46025e-06
2.3508e-06
2.24702e-06
2.15025e-06
2.06057e-06
1.97764e-06
1.90115e-06
1.83078e-06
1.76638e-06
1.708e-06
1.65603e-06
1.61122e-06
1.57484e-06
1.54873e-06
1.53534e-06
1.53779e-06
1.55964e-06
1.60458e-06
1.67608e-06
1.77675e-06
1.90768e-06
2.06893e-06
2.25583e-06
2.47225e-06
1.52068e-06
1.86945e-06
2.25386e-06
2.45681e-06
2.53566e-06
2.55028e-06
2.51003e-06
2.43135e-06
2.3367e-06
2.2379e-06
2.13965e-06
2.04507e-06
1.95607e-06
1.87332e-06
1.79698e-06
1.7271e-06
1.6637e-06
1.60687e-06
1.55691e-06
1.51435e-06
1.48004e-06
1.45522e-06
1.44149e-06
1.44085e-06
1.45555e-06
1.48797e-06
1.54022e-06
1.61407e-06
1.71048e-06
1.82923e-06
1.96948e-06
2.12688e-06
2.30514e-06
1.26491e-06
1.58996e-06
1.96096e-06
2.17761e-06
2.27829e-06
2.31274e-06
2.29253e-06
2.23291e-06
2.15384e-06
2.06722e-06
1.97869e-06
1.89199e-06
1.80961e-06
1.73279e-06
1.66213e-06
1.59798e-06
1.54063e-06
1.49034e-06
1.44752e-06
1.41275e-06
1.38684e-06
1.3708e-06
1.36589e-06
1.37352e-06
1.39514e-06
1.43211e-06
1.48553e-06
1.55602e-06
1.64355e-06
1.74736e-06
1.86627e-06
1.99627e-06
2.14103e-06
1.04667e-06
1.35886e-06
1.72227e-06
1.95114e-06
2.07083e-06
2.12289e-06
2.12007e-06
2.07695e-06
2.01163e-06
1.93595e-06
1.85625e-06
1.77681e-06
1.70052e-06
1.62906e-06
1.56338e-06
1.50411e-06
1.45171e-06
1.40659e-06
1.36922e-06
1.34013e-06
1.32e-06
1.3096e-06
1.30978e-06
1.32143e-06
1.34534e-06
1.38216e-06
1.43226e-06
1.4956e-06
1.57171e-06
1.65955e-06
1.75784e-06
1.86316e-06
1.97906e-06
8.57173e-07
1.16661e-06
1.52745e-06
1.76748e-06
1.90383e-06
1.9717e-06
1.98433e-06
1.9559e-06
1.90299e-06
1.83723e-06
1.76546e-06
1.69237e-06
1.62126e-06
1.55418e-06
1.49242e-06
1.43684e-06
1.38805e-06
1.34656e-06
1.31283e-06
1.28732e-06
1.27051e-06
1.26292e-06
1.26504e-06
1.27731e-06
1.30007e-06
1.33347e-06
1.37742e-06
1.43154e-06
1.49513e-06
1.5671e-06
1.64624e-06
1.72965e-06
1.82071e-06
6.90186e-07
1.00681e-06
1.36934e-06
1.61966e-06
1.77066e-06
1.85273e-06
1.87913e-06
1.86367e-06
1.82177e-06
1.76481e-06
1.69997e-06
1.63234e-06
1.56553e-06
1.5019e-06
1.44301e-06
1.3899e-06
1.3433e-06
1.30374e-06
1.27168e-06
1.24746e-06
1.23143e-06
1.22385e-06
1.22497e-06
1.2349e-06
1.25366e-06
1.28112e-06
1.31695e-06
1.3606e-06
1.41129e-06
1.46801e-06
1.52966e-06
1.59384e-06
1.66369e-06
5.41837e-07
8.75843e-07
1.24323e-06
1.5029e-06
1.66672e-06
1.76147e-06
1.80016e-06
1.7962e-06
1.76412e-06
1.71499e-06
1.65624e-06
1.59325e-06
1.52989e-06
1.46878e-06
1.4117e-06
1.35983e-06
1.31401e-06
1.27481e-06
1.24262e-06
1.21773e-06
1.20034e-06
1.19054e-06
1.18838e-06
1.19379e-06
1.20658e-06
1.22647e-06
1.253e-06
1.28559e-06
1.32349e-06
1.36579e-06
1.41157e-06
1.45887e-06
1.5106e-06
4.11483e-07
7.72711e-07
1.14641e-06
1.41418e-06
1.58901e-06
1.69494e-06
1.74449e-06
1.75062e-06
1.7271e-06
1.68467e-06
1.63092e-06
1.57144e-06
1.51031e-06
1.45041e-06
1.39367e-06
1.34145e-06
1.29463e-06
1.25383e-06
1.21942e-06
1.19164e-06
1.1706e-06
1.15631e-06
1.1487e-06
1.1476e-06
1.15274e-06
1.16377e-06
1.18024e-06
1.20159e-06
1.22715e-06
1.25618e-06
1.28787e-06
1.32065e-06
1.35713e-06
3.05193e-07
6.98966e-07
1.07779e-06
1.35189e-06
1.53586e-06
1.6515e-06
1.71059e-06
1.72558e-06
1.70956e-06
1.67298e-06
1.6235e-06
1.56685e-06
1.50732e-06
1.44791e-06
1.39072e-06
1.3372e-06
1.28829e-06
1.24464e-06
1.20661e-06
1.17441e-06
1.14811e-06
1.12768e-06
1.11299e-06
1.10386e-06
1.10003e-06
1.10115e-06
1.10684e-06
1.11664e-06
1.12999e-06
1.14632e-06
1.165e-06
1.18483e-06
1.20812e-06
2.44303e-07
6.58089e-07
1.03755e-06
1.31553e-06
1.50662e-06
1.63035e-06
1.69747e-06
1.71979e-06
1.70976e-06
1.67753e-06
1.63075e-06
1.5753e-06
1.51558e-06
1.45479e-06
1.39518e-06
1.3383e-06
1.2852e-06
1.23655e-06
1.19276e-06
1.15405e-06
1.12049e-06
1.09205e-06
1.06864e-06
1.05009e-06
1.03621e-06
1.02675e-06
1.02142e-06
1.0199e-06
1.02179e-06
1.02667e-06
1.03406e-06
1.04302e-06
1.05553e-06
2.6039e-07
6.53914e-07
1.02669e-06
1.30558e-06
1.50181e-06
1.63224e-06
1.70637e-06
1.73526e-06
1.73077e-06
1.70271e-06
1.65866e-06
1.60452e-06
1.54476e-06
1.48268e-06
1.42059e-06
1.36013e-06
1.30239e-06
1.24809e-06
1.19767e-06
1.15137e-06
1.10931e-06
1.07151e-06
1.03791e-06
1.00847e-06
9.83074e-07
9.61629e-07
9.44007e-07
9.30074e-07
9.1963e-07
9.12491e-07
9.08358e-07
9.06633e-07
9.09008e-07
3.47058e-07
6.88508e-07
1.04665e-06
1.32317e-06
1.52218e-06
1.65727e-06
1.73627e-06
1.76932e-06
1.76772e-06
1.741e-06
1.69674e-06
1.64092e-06
1.57819e-06
1.51198e-06
1.44473e-06
1.37818e-06
1.31351e-06
1.25148e-06
1.19256e-06
1.13703e-06
1.08502e-06
1.03661e-06
9.91819e-07
9.50676e-07
9.13214e-07
8.79494e-07
8.49587e-07
8.23584e-07
8.01525e-07
7.83467e-07
7.69301e-07
7.58676e-07
7.53043e-07
4.7447e-07
7.61162e-07
1.09899e-06
1.3705e-06
1.571e-06
1.71048e-06
1.79492e-06
1.83339e-06
1.83648e-06
1.81328e-06
1.77106e-06
1.71574e-06
1.65191e-06
1.58306e-06
1.51172e-06
1.43971e-06
1.36831e-06
1.29837e-06
1.23045e-06
1.16488e-06
1.10188e-06
1.04157e-06
9.84061e-07
9.29453e-07
8.7789e-07
8.2957e-07
7.84749e-07
7.43756e-07
7.06926e-07
6.74687e-07
6.47278e-07
6.24938e-07
6.08887e-07
6.28807e-07
8.70573e-07
1.18596e-06
1.44982e-06
1.64863e-06
1.78846e-06
1.87321e-06
1.91108e-06
1.91245e-06
1.88636e-06
1.84023e-06
1.7801e-06
1.7107e-06
1.63558e-06
1.55734e-06
1.47781e-06
1.39826e-06
1.31955e-06
1.24219e-06
1.16654e-06
1.09278e-06
1.02106e-06
9.51472e-07
8.84157e-07
8.193e-07
7.57176e-07
6.98158e-07
6.4276e-07
5.91587e-07
5.45441e-07
5.05024e-07
4.71224e-07
4.45542e-07
8.07761e-07
1.01507e-06
1.30935e-06
1.5663e-06
1.76626e-06
1.91182e-06
2.00417e-06
2.0497e-06
2.05755e-06
2.03603e-06
1.99215e-06
1.93186e-06
1.86005e-06
1.7805e-06
1.69608e-06
1.6089e-06
1.5205e-06
1.43193e-06
1.34389e-06
1.25685e-06
1.17109e-06
1.08679e-06
1.00406e-06
9.2303e-07
8.43823e-07
7.66627e-07
6.91701e-07
6.1943e-07
5.50288e-07
4.85059e-07
4.24472e-07
3.70244e-07
3.23565e-07
1.0163e-06
1.20018e-06
1.47646e-06
1.72238e-06
1.91368e-06
2.05077e-06
2.1341e-06
2.17051e-06
2.1699e-06
2.14089e-06
2.09046e-06
2.02437e-06
1.9472e-06
1.86243e-06
1.77266e-06
1.67984e-06
1.58535e-06
1.49018e-06
1.39504e-06
1.30039e-06
1.20656e-06
1.11376e-06
1.02215e-06
9.31868e-07
8.43042e-07
7.55817e-07
6.70359e-07
5.86879e-07
5.05582e-07
4.26809e-07
3.50649e-07
2.78016e-07
2.08153e-07
1.2586e-06
1.42244e-06
1.68663e-06
1.93449e-06
2.13941e-06
2.29626e-06
2.39911e-06
2.45094e-06
2.46017e-06
2.43528e-06
2.38383e-06
2.3126e-06
2.22724e-06
2.13218e-06
2.0308e-06
1.92565e-06
1.81852e-06
1.71073e-06
1.60317e-06
1.49644e-06
1.39097e-06
1.28703e-06
1.18485e-06
1.08459e-06
9.86434e-07
8.90572e-07
7.97217e-07
7.06646e-07
6.19141e-07
5.35182e-07
4.54957e-07
3.79953e-07
3.08133e-07
1.55539e-06
1.71613e-06
1.96802e-06
2.18978e-06
2.36072e-06
2.48413e-06
2.55957e-06
2.5927e-06
2.5919e-06
2.56372e-06
2.51329e-06
2.44522e-06
2.36359e-06
2.2718e-06
2.17266e-06
2.06848e-06
1.96114e-06
1.85211e-06
1.74255e-06
1.63334e-06
1.52519e-06
1.41864e-06
1.31418e-06
1.21219e-06
1.11307e-06
1.01723e-06
9.25109e-07
8.37223e-07
7.54141e-07
6.76609e-07
6.05262e-07
5.41657e-07
4.84722e-07
1.89863e-06
2.03689e-06
2.30337e-06
2.57857e-06
2.81938e-06
3.00413e-06
3.11842e-06
3.16702e-06
3.16358e-06
3.12066e-06
3.04853e-06
2.95576e-06
2.84901e-06
2.73314e-06
2.61164e-06
2.48704e-06
2.36114e-06
2.23523e-06
2.11026e-06
1.98697e-06
1.86591e-06
1.74756e-06
1.63233e-06
1.5206e-06
1.41276e-06
1.3092e-06
1.21033e-06
1.11663e-06
1.02857e-06
9.46736e-07
8.71439e-07
8.03944e-07
7.41928e-07
2.38311e-06
2.55339e-06
2.76532e-06
2.91616e-06
3.03568e-06
3.14458e-06
3.23196e-06
3.28965e-06
3.31582e-06
3.30992e-06
3.27349e-06
3.21057e-06
3.1261e-06
3.02494e-06
2.91149e-06
2.78957e-06
2.66231e-06
2.53225e-06
2.40135e-06
2.27116e-06
2.14285e-06
2.01735e-06
1.89538e-06
1.77754e-06
1.6643e-06
1.55611e-06
1.45335e-06
1.3564e-06
1.26562e-06
1.18144e-06
1.10406e-06
1.03442e-06
9.706e-07
2.86309e-06
2.99017e-06
3.39662e-06
3.81965e-06
4.13793e-06
4.33083e-06
4.40782e-06
4.40004e-06
4.33745e-06
4.23832e-06
4.11389e-06
3.97221e-06
3.81888e-06
3.65781e-06
3.49206e-06
3.3242e-06
3.15641e-06
2.99052e-06
2.82807e-06
2.67029e-06
2.51816e-06
2.37244e-06
2.23368e-06
2.10228e-06
1.97849e-06
1.86248e-06
1.75432e-06
1.65408e-06
1.56172e-06
1.47733e-06
1.40069e-06
1.33275e-06
1.27063e-06
3.90711e-06
4.02604e-06
3.95406e-06
3.89106e-06
4.00284e-06
4.21904e-06
4.41659e-06
4.54591e-06
4.60371e-06
4.59986e-06
4.55098e-06
4.47526e-06
4.38747e-06
4.29784e-06
4.21273e-06
4.13542e-06
4.067e-06
4.00718e-06
3.95497e-06
3.90912e-06
3.86839e-06
3.83163e-06
3.79792e-06
3.76649e-06
3.73673e-06
3.70813e-06
3.68027e-06
3.6528e-06
3.62545e-06
3.59815e-06
3.57087e-06
3.54518e-06
3.51893e-06
4.37132e-06
4.95959e-06
5.94783e-06
6.43581e-06
6.55161e-06
6.52449e-06
6.50917e-06
6.61131e-06
6.86141e-06
7.22813e-06
7.66183e-06
8.11788e-06
8.56209e-06
8.97155e-06
9.33308e-06
9.64063e-06
9.8929e-06
1.00916e-05
1.02402e-05
1.03433e-05
1.04056e-05
1.04319e-05
1.04268e-05
1.03946e-05
1.03388e-05
1.02629e-05
1.01694e-05
1.00604e-05
9.93788e-06
9.80287e-06
9.65712e-06
9.50279e-06
9.34091e-06
7.566e-06
5.83797e-06
4.64095e-06
6.22665e-06
8.95255e-06
1.16588e-05
1.39869e-05
1.58757e-05
1.73239e-05
1.83454e-05
1.89769e-05
1.92661e-05
1.92626e-05
1.90156e-05
1.85721e-05
1.79747e-05
1.7261e-05
1.64634e-05
1.5609e-05
1.47198e-05
1.38139e-05
1.29054e-05
1.20049e-05
1.11208e-05
1.02589e-05
9.42306e-06
8.61557e-06
7.83699e-06
7.08716e-06
6.36259e-06
5.664e-06
4.9793e-06
4.32204e-06
8.58682e-06
1.4727e-05
1.88229e-05
2.12175e-05
2.22956e-05
2.181e-05
1.99374e-05
1.7133e-05
1.38718e-05
1.07935e-05
8.94223e-06
9.40084e-06
1.18541e-05
1.51911e-05
1.87394e-05
2.22047e-05
2.54586e-05
2.84458e-05
3.11466e-05
3.35603e-05
3.56967e-05
3.75711e-05
3.92016e-05
4.06075e-05
4.1808e-05
4.28217e-05
4.36665e-05
4.43602e-05
4.49196e-05
4.53665e-05
4.57165e-05
4.60283e-05
4.62913e-05
3.46547e-05
3.72343e-05
4.6683e-05
6.18242e-05
7.75496e-05
9.29691e-05
0.000107381
0.000120076
0.000130868
0.0001398
0.000146984
0.000152582
0.000156783
0.000159771
0.000161722
0.000162794
0.00016313
0.000162852
0.000162068
0.000160868
0.00015933
0.000157519
0.000155489
0.000153286
0.000150948
0.000148505
0.000145982
0.000143398
0.000140771
0.000138106
0.000135403
0.000132754
0.000130171
0.000608455
0.000582505
0.000556863
0.00053037
0.000504326
0.000479052
0.000454587
0.000431203
0.000409082
0.00038828
0.000368814
0.000350669
0.000333797
0.00031813
0.000303588
0.00029009
0.000277548
0.000265882
0.000255011
0.000244863
0.000235368
0.000226465
0.000218098
0.000210216
0.000202774
0.00019573
0.000189047
0.000182691
0.000176622
0.000170819
0.000165154
0.00016016
0.000155609
7.71312e-05
7.01964e-05
6.33722e-05
5.12783e-05
3.76816e-05
2.61643e-05
1.77779e-05
1.64579e-05
2.41452e-05
3.56539e-05
4.9324e-05
5.91436e-05
5.95565e-05
5.38214e-05
5.13139e-05
5.37879e-05
5.67422e-05
5.79779e-05
6.2961e-05
7.20747e-05
6.41225e-05
5.58924e-05
5.34266e-05
4.69486e-05
3.9036e-05
3.24406e-05
2.74227e-05
2.31249e-05
1.86999e-05
1.38937e-05
9.2504e-06
6.69061e-06
7.56311e-06
1.02999e-05
1.4158e-05
1.68645e-05
1.87923e-05
2.20513e-05
2.67784e-05
3.05001e-05
3.06532e-05
2.7908e-05
2.44775e-05
2.15512e-05
1.91663e-05
1.71079e-05
1.52703e-05
1.36218e-05
1.21436e-05
1.08135e-05
9.61094e-06
8.52058e-06
7.53246e-06
6.63947e-06
5.83538e-06
5.11399e-06
4.46888e-06
3.89383e-06
3.38314e-06
2.93183e-06
2.53565e-06
2.19087e-06
1.89394e-06
1.64124e-06
1.42896e-06
1.25299e-06
1.10921e-06
9.93571e-07
9.02494e-07
8.32869e-07
7.81785e-07
7.46132e-07
7.22266e-07
7.06414e-07
6.95993e-07
6.90782e-07
6.91989e-07
6.98863e-07
7.06217e-07
7.0665e-07
6.95901e-07
6.75734e-07
6.51898e-07
6.29331e-07
6.09497e-07
5.91275e-07
5.72928e-07
5.52888e-07
5.29579e-07
5.014e-07
4.67671e-07
4.28987e-07
3.88324e-07
3.47811e-07
3.1275e-07
2.79156e-07
2.59096e-07
2.25922e-07
2.34086e-07
1.81914e-07
0.000118075
0.000100372
7.67818e-05
5.92961e-05
4.45868e-05
3.16606e-05
2.27964e-05
2.50028e-05
3.75303e-05
5.27941e-05
6.25993e-05
6.13571e-05
5.06967e-05
4.06399e-05
4.00648e-05
4.32704e-05
4.45584e-05
4.47477e-05
4.67022e-05
5.69728e-05
6.22382e-05
5.4171e-05
5.06378e-05
4.72978e-05
4.02584e-05
3.29882e-05
2.71453e-05
2.2293e-05
1.7605e-05
1.26843e-05
7.9138e-06
4.3974e-06
5.0921e-06
1.03978e-05
1.48964e-05
1.6779e-05
1.92135e-05
2.38415e-05
2.92753e-05
3.19799e-05
3.06963e-05
2.73561e-05
2.40168e-05
2.1294e-05
1.90322e-05
1.70502e-05
1.52751e-05
1.36782e-05
1.22365e-05
1.09278e-05
9.7351e-06
8.64719e-06
7.65699e-06
6.75908e-06
5.94822e-06
5.21889e-06
4.56527e-06
3.98164e-06
3.46264e-06
3.00353e-06
2.60015e-06
2.24874e-06
1.94572e-06
1.68744e-06
1.47011e-06
1.28965e-06
1.14192e-06
1.02285e-06
9.28608e-07
8.55854e-07
8.01629e-07
7.62938e-07
7.36356e-07
7.18319e-07
7.06419e-07
7.00705e-07
7.02814e-07
7.12397e-07
7.24103e-07
7.29614e-07
7.23282e-07
7.05839e-07
6.82284e-07
6.57491e-07
6.33637e-07
6.10721e-07
5.88044e-07
5.64642e-07
5.39079e-07
5.09571e-07
4.75092e-07
4.35864e-07
3.94638e-07
3.53439e-07
3.17671e-07
2.83363e-07
2.62814e-07
2.29065e-07
2.37543e-07
1.84368e-07
0.000113292
0.000115731
0.000104811
8.79744e-05
7.22936e-05
6.12046e-05
5.6881e-05
5.8883e-05
6.35743e-05
6.4915e-05
5.85757e-05
4.50476e-05
3.16403e-05
2.95897e-05
3.47269e-05
3.72059e-05
3.64696e-05
3.55733e-05
3.59678e-05
4.16795e-05
5.16735e-05
5.23952e-05
4.72125e-05
4.55547e-05
4.15613e-05
3.46947e-05
2.78455e-05
2.20228e-05
1.67684e-05
1.15774e-05
6.36659e-06
8.46462e-07
6.99046e-06
1.32036e-05
1.55315e-05
1.67466e-05
2.05975e-05
2.68083e-05
3.19547e-05
3.28682e-05
3.02476e-05
2.66469e-05
2.35337e-05
2.10313e-05
1.8903e-05
1.70086e-05
1.52988e-05
1.37498e-05
1.23394e-05
1.10488e-05
9.86482e-06
8.77963e-06
7.78806e-06
6.88579e-06
6.06839e-06
5.33102e-06
4.66852e-06
4.07573e-06
3.54774e-06
3.08012e-06
2.66884e-06
2.31022e-06
2.0006e-06
1.73629e-06
1.51337e-06
1.32773e-06
1.17517e-06
1.0516e-06
9.53245e-07
8.7682e-07
8.19386e-07
7.77864e-07
7.48727e-07
7.2832e-07
7.14241e-07
7.06774e-07
7.08148e-07
7.18751e-07
7.33587e-07
7.4387e-07
7.42915e-07
7.29977e-07
7.08915e-07
6.84124e-07
6.58076e-07
6.3166e-07
6.05242e-07
5.78664e-07
5.50881e-07
5.2007e-07
4.84925e-07
4.45311e-07
4.03738e-07
3.62099e-07
3.25877e-07
2.91099e-07
2.7027e-07
2.36113e-07
2.45089e-07
1.91052e-07
8.6792e-05
9.13198e-05
9.19797e-05
8.84144e-05
8.19635e-05
7.52487e-05
6.96511e-05
6.39483e-05
5.61911e-05
4.49569e-05
3.11217e-05
2.08998e-05
2.34103e-05
3.04969e-05
3.38311e-05
3.33097e-05
3.13764e-05
3.0396e-05
3.0847e-05
3.35223e-05
3.98331e-05
4.58314e-05
4.45418e-05
4.17088e-05
4.04683e-05
3.66668e-05
3.05171e-05
2.40094e-05
1.80209e-05
1.26669e-05
8.43584e-06
8.72783e-06
1.32619e-05
1.53665e-05
1.50587e-05
1.74571e-05
2.36689e-05
3.06687e-05
3.40715e-05
3.28387e-05
2.93314e-05
2.58508e-05
2.30629e-05
2.07772e-05
1.87747e-05
1.69666e-05
1.53221e-05
1.38201e-05
1.24406e-05
1.11687e-05
9.99504e-06
8.91435e-06
7.92289e-06
7.01728e-06
6.19389e-06
5.44868e-06
4.77724e-06
4.17508e-06
3.63783e-06
3.16136e-06
2.74186e-06
2.37568e-06
2.05916e-06
1.78856e-06
1.55996e-06
1.36921e-06
1.21215e-06
1.08463e-06
9.82773e-07
9.03073e-07
8.42413e-07
7.97702e-07
7.65489e-07
7.42219e-07
7.25597e-07
7.16171e-07
7.16787e-07
7.28565e-07
7.46671e-07
7.61573e-07
7.65537e-07
7.56734e-07
7.38079e-07
7.13417e-07
6.85286e-07
6.55265e-07
6.24715e-07
5.94375e-07
5.63702e-07
5.30924e-07
4.94496e-07
4.53921e-07
4.11452e-07
3.68842e-07
3.31652e-07
2.95926e-07
2.7439e-07
2.39419e-07
2.48574e-07
1.9332e-07
4.10498e-05
4.51993e-05
4.73381e-05
4.73554e-05
4.51896e-05
4.08544e-05
3.42329e-05
2.56787e-05
1.63116e-05
1.11887e-05
1.66643e-05
2.4713e-05
3.01271e-05
3.19096e-05
3.10957e-05
2.95448e-05
2.85164e-05
2.84408e-05
2.93556e-05
3.09001e-05
3.4344e-05
3.80416e-05
4.00615e-05
3.82744e-05
3.64112e-05
3.52538e-05
3.23653e-05
2.77349e-05
2.27042e-05
1.84155e-05
1.61142e-05
1.6406e-05
1.63438e-05
1.43206e-05
1.47954e-05
2.04919e-05
2.865e-05
3.43188e-05
3.48779e-05
3.18963e-05
2.81784e-05
2.5083e-05
2.26249e-05
2.05269e-05
1.86406e-05
1.69183e-05
1.5339e-05
1.38834e-05
1.25352e-05
1.12837e-05
1.01227e-05
9.04861e-06
8.05879e-06
7.15083e-06
6.32201e-06
5.56921e-06
4.88889e-06
4.27728e-06
3.73056e-06
3.24502e-06
2.81702e-06
2.44301e-06
2.11935e-06
1.84223e-06
1.60768e-06
1.41153e-06
1.24953e-06
1.11751e-06
1.01151e-06
9.28038e-07
8.63946e-07
8.16088e-07
7.80925e-07
7.54794e-07
7.35318e-07
7.23191e-07
7.21874e-07
7.33443e-07
7.53684e-07
7.7295e-07
7.82386e-07
7.78797e-07
7.63933e-07
7.40879e-07
7.11989e-07
6.7931e-07
6.45145e-07
6.11228e-07
5.77688e-07
5.42955e-07
5.05326e-07
4.63973e-07
4.20872e-07
3.7761e-07
3.39789e-07
3.03446e-07
2.81519e-07
2.46027e-07
2.55637e-07
1.99428e-07
5.74074e-06
9.12184e-06
1.1501e-05
1.21258e-05
1.11465e-05
9.86805e-06
1.10385e-05
1.54562e-05
2.10128e-05
2.58129e-05
2.88289e-05
2.98094e-05
2.91902e-05
2.78835e-05
2.68253e-05
2.64848e-05
2.6754e-05
2.73559e-05
2.84993e-05
2.98012e-05
3.2224e-05
3.50905e-05
3.57845e-05
3.49728e-05
3.28363e-05
3.09161e-05
2.95023e-05
2.74652e-05
2.46275e-05
2.17838e-05
1.95258e-05
1.71179e-05
1.38914e-05
1.2987e-05
1.80272e-05
2.67744e-05
3.40645e-05
3.63161e-05
3.41389e-05
3.03854e-05
2.70202e-05
2.43897e-05
2.22131e-05
2.02744e-05
1.84981e-05
1.68614e-05
1.53472e-05
1.39387e-05
1.2624e-05
1.13958e-05
1.02499e-05
9.18425e-06
8.19726e-06
7.2876e-06
6.45365e-06
5.69334e-06
5.00406e-06
4.38284e-06
3.82645e-06
3.33157e-06
2.8948e-06
2.51269e-06
2.18161e-06
1.89774e-06
1.65707e-06
1.45541e-06
1.28852e-06
1.15218e-06
1.04238e-06
9.55466e-07
8.88122e-07
8.37104e-07
7.98853e-07
7.69698e-07
7.47262e-07
7.32418e-07
7.29254e-07
7.40741e-07
7.63138e-07
7.8642e-07
8.00889e-07
8.02274e-07
7.91289e-07
7.70181e-07
7.40893e-07
7.05715e-07
6.67782e-07
6.29866e-07
5.92888e-07
5.556e-07
5.16205e-07
4.73559e-07
4.29353e-07
3.84988e-07
3.46095e-07
3.0872e-07
2.8601e-07
2.49651e-07
2.59416e-07
2.0193e-07
9.4651e-06
1.20005e-05
1.54405e-05
1.87815e-05
2.16026e-05
2.39602e-05
2.58869e-05
2.72239e-05
2.77581e-05
2.73724e-05
2.62713e-05
2.49431e-05
2.39158e-05
2.34827e-05
2.35983e-05
2.40462e-05
2.468e-05
2.54507e-05
2.65681e-05
2.81196e-05
2.99574e-05
3.32448e-05
3.52534e-05
3.39243e-05
3.11704e-05
2.82687e-05
2.5671e-05
2.3403e-05
2.10356e-05
1.85373e-05
1.59438e-05
1.33136e-05
1.2725e-05
1.7468e-05
2.62039e-05
3.40929e-05
3.73578e-05
3.59104e-05
3.22917e-05
2.87642e-05
2.59992e-05
2.37724e-05
2.18129e-05
2.00122e-05
1.83435e-05
1.6793e-05
1.5345e-05
1.39862e-05
1.2708e-05
1.15059e-05
1.03774e-05
9.32167e-06
8.33841e-06
7.42757e-06
6.58877e-06
5.82104e-06
5.12279e-06
4.49183e-06
3.92557e-06
3.42109e-06
2.97527e-06
2.58477e-06
2.24599e-06
1.9551e-06
1.70808e-06
1.50069e-06
1.32866e-06
1.18773e-06
1.07378e-06
9.83076e-07
9.1222e-07
8.57916e-07
8.16512e-07
7.84216e-07
7.58508e-07
7.40295e-07
7.34208e-07
7.44307e-07
7.67838e-07
7.94832e-07
8.14631e-07
8.21735e-07
8.15716e-07
7.97833e-07
7.69384e-07
7.32655e-07
6.91489e-07
6.49734e-07
6.09262e-07
5.69302e-07
5.2808e-07
4.84185e-07
4.39021e-07
3.93782e-07
3.54093e-07
3.15985e-07
2.92797e-07
2.55864e-07
2.66088e-07
2.07714e-07
6.92885e-06
9.24831e-06
1.22313e-05
1.52764e-05
1.79275e-05
1.99435e-05
2.12435e-05
2.18007e-05
2.17271e-05
2.12631e-05
2.07353e-05
2.04176e-05
2.04146e-05
2.067e-05
2.10697e-05
2.15492e-05
2.21382e-05
2.29205e-05
2.39932e-05
2.55601e-05
2.74147e-05
3.00357e-05
3.37207e-05
3.53554e-05
3.34785e-05
2.98182e-05
2.6052e-05
2.27123e-05
1.97931e-05
1.72821e-05
1.56268e-05
1.61245e-05
2.06317e-05
2.82577e-05
3.52386e-05
3.83255e-05
3.71367e-05
3.36983e-05
3.01624e-05
2.73566e-05
2.5132e-05
2.31927e-05
2.14035e-05
1.97341e-05
1.81749e-05
1.67125e-05
1.53331e-05
1.4027e-05
1.27886e-05
1.16152e-05
1.05059e-05
9.46128e-06
8.48255e-06
7.57103e-06
6.72764e-06
5.95259e-06
5.24531e-06
4.60446e-06
4.02807e-06
3.5137e-06
3.05849e-06
2.65926e-06
2.31247e-06
2.0143e-06
1.7607e-06
1.54743e-06
1.37019e-06
1.22468e-06
1.10672e-06
1.01242e-06
9.38234e-07
8.80716e-07
8.36134e-07
8.00602e-07
7.71496e-07
7.49787e-07
7.40652e-07
7.49214e-07
7.73608e-07
8.03913e-07
8.28701e-07
8.41441e-07
8.40656e-07
8.26545e-07
7.99545e-07
7.61696e-07
7.1739e-07
6.71556e-07
6.27123e-07
5.83944e-07
5.40358e-07
4.94728e-07
4.48166e-07
4.01645e-07
3.60762e-07
3.2154e-07
2.97501e-07
2.59662e-07
2.7002e-07
2.10342e-07
5.48279e-06
7.23007e-06
9.36586e-06
1.15623e-05
1.35482e-05
1.51612e-05
1.63257e-05
1.70579e-05
1.74522e-05
1.76354e-05
1.77355e-05
1.78536e-05
1.80457e-05
1.83259e-05
1.86905e-05
1.91506e-05
1.97447e-05
2.05409e-05
2.16078e-05
2.30169e-05
2.47974e-05
2.68706e-05
2.99355e-05
3.365e-05
3.5603e-05
3.47077e-05
3.19765e-05
2.88395e-05
2.62723e-05
2.48128e-05
2.52421e-05
2.82697e-05
3.31763e-05
3.75759e-05
3.92062e-05
3.76762e-05
3.43946e-05
3.10399e-05
2.83481e-05
2.62118e-05
2.43464e-05
2.26104e-05
2.0976e-05
1.944e-05
1.79927e-05
1.66205e-05
1.53127e-05
1.40626e-05
1.28669e-05
1.17243e-05
1.06358e-05
9.60345e-06
8.63002e-06
7.71832e-06
6.8706e-06
6.08831e-06
5.37193e-06
4.72097e-06
4.13418e-06
3.60957e-06
3.14463e-06
2.73632e-06
2.38119e-06
2.07546e-06
1.81505e-06
1.59572e-06
1.41313e-06
1.26292e-06
1.14081e-06
1.04278e-06
9.65128e-07
9.04267e-07
8.56386e-07
8.17436e-07
7.8459e-07
7.58734e-07
7.4552e-07
7.51307e-07
7.75649e-07
8.08873e-07
8.3874e-07
8.57624e-07
8.62961e-07
8.53776e-07
8.29424e-07
7.91429e-07
7.44567e-07
6.94832e-07
6.46337e-07
5.99727e-07
5.53593e-07
5.06148e-07
4.58227e-07
4.10565e-07
3.68699e-07
3.28617e-07
3.04002e-07
2.65536e-07
2.76333e-07
2.15792e-07
5.03576e-06
6.41161e-06
8.04923e-06
9.73382e-06
1.12974e-05
1.26404e-05
1.37125e-05
1.44955e-05
1.50113e-05
1.53211e-05
1.55147e-05
1.56847e-05
1.58969e-05
1.61827e-05
1.65549e-05
1.70317e-05
1.76438e-05
1.8436e-05
1.94762e-05
2.07772e-05
2.2371e-05
2.41984e-05
2.63578e-05
2.93924e-05
3.29007e-05
3.54331e-05
3.62649e-05
3.58816e-05
3.52402e-05
3.52691e-05
3.6309e-05
3.80698e-05
3.94242e-05
3.92004e-05
3.71752e-05
3.41762e-05
3.12491e-05
2.88684e-05
2.69323e-05
2.52044e-05
2.35682e-05
2.20086e-05
2.05317e-05
1.91324e-05
1.77984e-05
1.65186e-05
1.52854e-05
1.40943e-05
1.29436e-05
1.18339e-05
1.07677e-05
9.74871e-06
8.78138e-06
7.86997e-06
7.01816e-06
6.22864e-06
5.50299e-06
4.84165e-06
4.24408e-06
3.70883e-06
3.23372e-06
2.81593e-06
2.45211e-06
2.13852e-06
1.87108e-06
1.64554e-06
1.45753e-06
1.30261e-06
1.17642e-06
1.07477e-06
9.93775e-07
9.29674e-07
8.78496e-07
8.36046e-07
7.9929e-07
7.69027e-07
7.51348e-07
7.53897e-07
7.77648e-07
8.13308e-07
8.47973e-07
8.73032e-07
8.84896e-07
8.81356e-07
8.60471e-07
8.22992e-07
7.73879e-07
7.20153e-07
6.67211e-07
6.16643e-07
5.67422e-07
5.17673e-07
4.67966e-07
4.18783e-07
3.75574e-07
3.34289e-07
3.08751e-07
2.6935e-07
2.80261e-07
2.18431e-07
4.68629e-06
5.80082e-06
7.106e-06
8.45813e-06
9.73648e-06
1.08588e-05
1.17735e-05
1.24636e-05
1.29512e-05
1.32858e-05
1.35298e-05
1.3744e-05
1.39775e-05
1.4265e-05
1.46316e-05
1.51025e-05
1.57075e-05
1.64805e-05
1.74731e-05
1.8705e-05
2.01627e-05
2.18369e-05
2.36386e-05
2.57006e-05
2.83361e-05
3.13199e-05
3.39489e-05
3.57896e-05
3.69406e-05
3.77558e-05
3.8272e-05
3.8187e-05
3.71806e-05
3.52841e-05
3.29587e-05
3.074e-05
2.8858e-05
2.7229e-05
2.57022e-05
2.42142e-05
2.27722e-05
2.13927e-05
2.00763e-05
1.88135e-05
1.75936e-05
1.64084e-05
1.52525e-05
1.41229e-05
1.30196e-05
1.19447e-05
1.09023e-05
9.89782e-06
8.93735e-06
8.02667e-06
7.1709e-06
6.37405e-06
5.63886e-06
4.96676e-06
4.35797e-06
3.8116e-06
3.32586e-06
2.89817e-06
2.5253e-06
2.20355e-06
1.92888e-06
1.697e-06
1.5035e-06
1.34387e-06
1.21362e-06
1.10837e-06
1.02403e-06
9.56657e-07
9.02091e-07
8.55946e-07
8.14902e-07
7.7954e-07
7.5633e-07
7.54426e-07
7.76582e-07
8.14142e-07
8.53544e-07
8.85154e-07
9.04334e-07
9.07555e-07
8.91364e-07
8.5545e-07
8.04752e-07
7.47259e-07
6.8975e-07
6.34938e-07
5.82337e-07
5.30091e-07
4.78539e-07
4.27898e-07
3.83497e-07
3.4122e-07
3.15002e-07
2.74925e-07
2.86244e-07
2.23566e-07
4.32775e-06
5.23246e-06
6.27678e-06
7.36182e-06
8.39971e-06
9.3277e-06
1.01086e-05
1.07284e-05
1.11949e-05
1.15354e-05
1.17923e-05
1.2015e-05
1.22492e-05
1.25301e-05
1.2885e-05
1.33403e-05
1.39249e-05
1.46686e-05
1.56086e-05
1.67632e-05
1.81157e-05
1.96524e-05
2.13208e-05
2.30359e-05
2.4861e-05
2.69198e-05
2.91032e-05
3.10815e-05
3.25827e-05
3.34786e-05
3.37258e-05