/*--------------------------------*- C++ -*----------------------------------*\
| =========                 |                                                 |
| \\      /  F ield         | OpenFOAM: The Open Source CFD Toolbox           |
|  \\    /   O peration     | Version:  2.1.1                                 |
|   \\  /    A nd           | Web:      www.OpenFOAM.org                      |
|    \\/     M anipulation  |                                                 |
\*---------------------------------------------------------------------------*/
FoamFile
{
    version     2.0;
    format      ascii;
    class       volScalarField;
    location    "0.06";
    object      p;
}
// * * * * * * * * * * * * * * * * * * * * * * * * * * * * * * * * * * * * * //

dimensions      [0 2 -2 0 0 0 0];

internalField   nonuniform List<scalar> 
6820
(
7.88519
-9.95006
-12.9574
-13.1431
-13.3134
-13.2367
-13.1753
-13.1815
-13.2209
-13.278
-13.3441
-13.4139
-13.4846
-13.5548
-13.6236
-13.6902
-13.754
-13.8144
-13.8706
-13.9218
-13.9674
-14.0062
-14.0373
-14.0595
-14.0714
-14.0715
-14.0581
-14.0292
-13.9829
-13.9156
-13.8289
-13.7076
-13.5907
1.2039
-9.76898
-12.6463
-12.9449
-13.1953
-13.2145
-13.1896
-13.207
-13.2481
-13.3023
-13.3645
-13.4307
-13.4985
-13.5664
-13.6336
-13.699
-13.7621
-13.822
-13.878
-13.9292
-13.9749
-14.0141
-14.0457
-14.0686
-14.0815
-14.0828
-14.0709
-14.0438
-13.9997
-13.9359
-13.8522
-13.7418
-13.6322
-1.51096
-8.33888
-11.6261
-12.3827
-12.8487
-13.0428
-13.0967
-13.147
-13.2076
-13.2743
-13.3453
-13.4183
-13.4914
-13.5633
-13.6333
-13.7009
-13.7656
-13.8269
-13.8841
-13.9365
-13.9835
-14.0242
-14.0577
-14.083
-14.099
-14.1043
-14.0978
-14.0779
-14.0438
-13.9943
-13.9318
-13.8589
-13.8025
-3.49662
-8.11195
-11.2049
-12.063
-12.533
-12.8064
-12.9306
-13.0253
-13.1173
-13.2048
-13.2894
-13.3717
-13.4518
-13.5296
-13.6049
-13.6772
-13.7463
-13.8118
-13.8732
-13.9301
-13.9819
-14.0279
-14.0676
-14.1002
-14.1251
-14.1415
-14.1489
-14.1473
-14.1374
-14.1215
-14.1062
-14.107
-14.157
-5.13251
-8.21286
-10.8137
-11.7161
-12.2221
-12.575
-12.7697
-12.9044
-13.0214
-13.1263
-13.2232
-13.3153
-13.4033
-13.4874
-13.5682
-13.6457
-13.7197
-13.7901
-13.8566
-13.919
-13.9769
-14.0302
-14.0784
-14.1216
-14.1595
-14.1924
-14.2211
-14.247
-14.2734
-14.3063
-14.3573
-14.4492
-14.6221
-6.3556
-8.39428
-10.5634
-11.5067
-12.0319
-12.4121
-12.6421
-12.7999
-12.9335
-13.0517
-13.1589
-13.259
-13.3539
-13.4442
-13.5304
-13.6128
-13.6916
-13.7669
-13.8387
-13.9069
-13.9717
-14.033
-14.091
-14.1462
-14.1991
-14.251
-14.3038
-14.3608
-14.4274
-14.5123
-14.6305
-14.8056
-15.0801
-7.3068
-8.68123
-10.4467
-11.3529
-11.8659
-12.2545
-12.5149
-12.6986
-12.8507
-12.9829
-13.1006
-13.2088
-13.3101
-13.4059
-13.4968
-13.5837
-13.667
-13.7469
-13.8235
-13.8972
-13.9681
-14.0367
-14.1034
-14.1692
-14.2352
-14.3033
-14.3765
-14.4591
-14.5577
-14.6822
-14.848
-15.0765
-15.4038
-8.05333
-8.98796
-10.3962
-11.2379
-11.7395
-12.13
-12.4095
-12.6108
-12.7753
-12.9177
-13.0437
-13.1588
-13.266
-13.367
-13.4629
-13.5545
-13.6424
-13.727
-13.8087
-13.8878
-13.965
-14.0408
-14.1161
-14.192
-14.2704
-14.3536
-14.4451
-14.5497
-14.6745
-14.8293
-15.0283
-15.289
-15.6391
-8.64613
-9.2922
-10.4071
-11.1687
-11.648
-12.0271
-12.3133
-12.5266
-12.7017
-12.8534
-12.9877
-13.1098
-13.223
-13.3294
-13.4302
-13.5264
-13.6188
-13.708
-13.7945
-13.879
-13.9622
-14.0448
-14.1281
-14.2135
-14.303
-14.3994
-14.5063
-14.6288
-14.7738
-14.95
-15.1696
-15.4461
-15.7995
-9.12306
-9.5783
-10.4559
-11.1289
-11.5795
-11.943
-12.2304
-12.452
-12.6351
-12.7942
-12.9351
-13.063
-13.1814
-13.2925
-13.3978
-13.4984
-13.5951
-13.6888
-13.7801
-13.8698
-13.9587
-14.0479
-14.1386
-14.2326
-14.332
-14.4397
-14.5594
-14.6958
-14.8553
-15.0453
-15.2756
-15.5558
-15.8995
-9.51103
-9.83859
-10.5287
-11.1148
-11.5332
-11.8777
-12.16
-12.385
-12.573
-12.7373
-12.8838
-13.017
-13.1403
-13.2561
-13.3658
-13.4707
-13.5717
-13.6698
-13.7657
-13.8603
-13.9546
-14.0498
-14.1472
-14.2487
-14.3564
-14.4732
-14.6026
-14.749
-14.9175
-15.1145
-15.3471
-15.622
-15.9477
-9.82966
-10.0707
-10.6148
-11.1195
-11.5032
-11.8265
-12.1001
-12.3251
-12.5162
-12.6845
-12.8355
-12.9731
-13.1008
-13.2208
-13.3345
-13.4434
-13.5485
-13.6506
-13.7508
-13.85
-13.9492
-14.0497
-14.1529
-14.2607
-14.3751
-14.4989
-14.6352
-14.7877
-14.9608
-15.1592
-15.388
-15.6514
-15.9542
-10.0933
-10.2747
-10.7059
-11.1376
-11.4864
-11.7879
-12.0504
-12.2726
-12.4645
-12.6352
-12.7894
-12.9308
-13.0622
-13.186
-13.3035
-13.4162
-13.5251
-13.6311
-13.7353
-13.8386
-13.9422
-14.0474
-14.1555
-14.2682
-14.3878
-14.5164
-14.6568
-14.8122
-14.9858
-15.1811
-15.4016
-15.6494
-15.9268
-10.3125
-10.452
-10.7965
-11.1646
-11.4794
-11.7591
-12.0089
-12.2263
-12.4174
-12.5893
-12.7459
-12.8903
-13.0251
-13.1522
-13.2732
-13.3894
-13.5017
-13.6113
-13.719
-13.826
-13.9334
-14.0423
-14.1543
-14.2708
-14.3938
-14.5252
-14.6674
-14.8227
-14.9937
-15.1826
-15.3915
-15.6213
-15.8725
-10.495
-10.6046
-10.8827
-11.1965
-11.4794
-11.738
-11.9747
-12.1858
-12.3748
-12.5468
-12.7049
-12.8516
-12.9891
-13.1192
-13.2433
-13.3626
-13.4781
-13.5908
-13.7017
-13.8119
-13.9224
-14.0344
-14.1492
-14.2682
-14.3931
-14.5255
-14.6672
-14.8202
-14.986
-15.1661
-15.3615
-15.5721
-15.7974
-10.6468
-10.7346
-10.9617
-11.2301
-11.4838
-11.7226
-11.946
-12.1501
-12.336
-12.5072
-12.6661
-12.8146
-12.9544
-13.0871
-13.2139
-13.336
-13.4543
-13.5698
-13.6834
-13.7962
-13.9092
-14.0233
-14.14
-14.2603
-14.3856
-14.5174
-14.657
-14.8056
-14.9644
-15.1341
-15.3149
-15.5061
-15.7066
-10.7723
-10.8439
-11.0318
-11.2627
-11.4904
-11.7109
-11.9216
-12.1183
-12.3005
-12.4704
-12.6296
-12.7793
-12.9209
-13.0558
-13.185
-13.3095
-13.4303
-13.5481
-13.664
-13.7789
-13.8936
-14.0092
-14.1267
-14.2473
-14.3719
-14.5017
-14.6376
-14.7806
-14.9311
-15.0894
-15.2552
-15.4275
-15.6048
-10.8746
-10.9342
-11.092
-11.2922
-11.4973
-11.7012
-11.9001
-12.0894
-12.2677
-12.4359
-12.5948
-12.7454
-12.8885
-13.0253
-13.1566
-13.2832
-13.406
-13.5258
-13.6435
-13.7598
-13.8757
-13.9919
-14.1095
-14.2292
-14.3521
-14.4787
-14.6099
-14.7461
-14.8875
-15.0339
-15.1849
-15.3392
-15.4952
-10.9563
-11.0069
-11.1416
-11.3169
-11.5027
-11.6919
-11.8801
-12.0625
-12.2369
-12.4032
-12.5617
-12.7129
-12.8573
-12.9956
-13.1287
-13.2571
-13.3817
-13.503
-13.622
-13.7393
-13.8557
-13.972
-14.0888
-14.207
-14.3271
-14.4498
-14.5754
-14.7042
-14.8361
-14.9708
-15.1074
-15.2449
-15.3815
-11.0193
-11.0629
-11.1799
-11.3355
-11.505
-11.6817
-11.8605
-12.0366
-12.2073
-12.3718
-12.5299
-12.6815
-12.8269
-12.9666
-13.1012
-13.2311
-13.357
-13.4796
-13.5994
-13.7172
-13.8335
-13.9491
-14.0645
-14.1804
-14.2971
-14.4151
-14.5346
-14.6556
-14.7779
-14.901
-15.0241
-15.146
-15.2653
-11.0646
-11.1031
-11.2065
-11.3466
-11.503
-11.6692
-11.8402
-12.0109
-12.1784
-12.3414
-12.4991
-12.6511
-12.7975
-12.9385
-13.0744
-13.2057
-13.3328
-13.4562
-13.5765
-13.6944
-13.8102
-13.9247
-14.0382
-14.1512
-14.264
-14.3769
-14.49
-14.6031
-14.716
-14.8281
-14.9385
-15.0464
-15.1503
-11.0932
-11.1278
-11.2211
-11.3494
-11.4954
-11.6532
-11.8179
-11.9843
-12.1493
-12.3112
-12.4687
-12.6213
-12.7687
-12.9109
-13.0479
-13.1803
-13.3082
-13.4321
-13.5526
-13.67
-13.7849
-13.8977
-14.0087
-14.1184
-14.2269
-14.3344
-14.4409
-14.5461
-14.6499
-14.7515
-14.8503
-14.9455
-15.0358
-11.1053
-11.1371
-11.2232
-11.3428
-11.481
-11.6327
-11.7928
-11.9562
-12.1197
-12.2811
-12.439
-12.5925
-12.7411
-12.8846
-13.0229
-13.1563
-13.285
-13.4093
-13.5297
-13.6465
-13.7602
-13.871
-13.9793
-14.0854
-14.1894
-14.2915
-14.3914
-14.4891
-14.5841
-14.6761
-14.7643
-14.8481
-14.9265
-11.101
-11.131
-11.2121
-11.3258
-11.4589
-11.6065
-11.7637
-11.9255
-12.0884
-12.2501
-12.4089
-12.5636
-12.7135
-12.8582
-12.9977
-13.132
-13.2612
-13.3856
-13.5056
-13.6214
-13.7334
-13.8419
-13.9471
-14.0494
-14.1487
-14.2451
-14.3386
-14.4289
-14.5157
-14.5987
-14.6773
-14.751
-14.819
-11.0799
-11.1088
-11.1871
-11.2976
-11.4279
-11.5737
-11.7301
-11.892
-12.0558
-12.219
-12.3796
-12.5363
-12.6882
-12.8347
-12.9757
-13.1111
-13.241
-13.3656
-13.4851
-13.5999
-13.7102
-13.8163
-13.9184
-14.0167
-14.1114
-14.2023
-14.2896
-14.3729
-14.4522
-14.5269
-14.5969
-14.6615
-14.7202
-11.0412
-11.0697
-11.1471
-11.2567
-11.3868
-11.533
-11.6904
-11.8539
-12.0198
-12.1853
-12.3483
-12.5073
-12.6614
-12.8098
-12.9522
-13.0886
-13.219
-13.3434
-13.4623
-13.5757
-13.684
-13.7875
-13.8863
-13.9805
-14.0704
-14.156
-14.2372
-14.3139
-14.386
-14.4532
-14.5152
-14.5718
-14.6226
-10.9835
-11.0124
-11.091
-11.2024
-11.335
-11.4843
-11.6455
-11.8131
-11.9833
-12.153
-12.3201
-12.4829
-12.6402
-12.7913
-12.9359
-13.0738
-13.205
-13.3296
-13.4479
-13.56
-13.6664
-13.7672
-13.8627
-13.953
-14.0383
-14.1186
-14.1941
-14.2646
-14.33
-14.3902
-14.4451
-14.4945
-14.538
-10.905
-10.9351
-11.0168
-11.1324
-11.2698
-11.4244
-11.591
-11.7642
-11.9397
-12.1145
-12.2863
-12.4532
-12.614
-12.7681
-12.9149
-13.0542
-13.1862
-13.3108
-13.4284
-13.5392
-13.6435
-13.7415
-13.8336
-13.9198
-14.0005
-14.0758
-14.1456
-14.2101
-14.2693
-14.3232
-14.3716
-14.4145
-14.4518
-10.8034
-10.8356
-10.9231
-11.0467
-11.193
-11.3572
-11.5336
-11.7163
-11.9007
-12.0836
-12.2624
-12.4354
-12.6013
-12.7593
-12.9091
-13.0505
-13.1835
-13.3084
-13.4254
-13.5348
-13.637
-13.7323
-13.8209
-13.9032
-13.9794
-14.0496
-14.1141
-14.173
-14.2262
-14.274
-14.3163
-14.3531
-14.3843
-10.675
-10.71
-10.8054
-10.9391
-11.0961
-11.2712
-11.4585
-11.6516
-11.8457
-12.0375
-12.2243
-12.4042
-12.5758
-12.7385
-12.8918
-13.0356
-13.1701
-13.2954
-13.412
-13.5201
-13.6202
-13.7126
-13.7979
-13.8762
-13.9479
-14.0133
-14.0726
-14.126
-14.1736
-14.2158
-14.2524
-14.2839
-14.3101
-10.5157
-10.556
-10.6651
-10.8167
-10.9928
-11.187
-11.3926
-11.6022
-11.8109
-12.0152
-12.2125
-12.4009
-12.5794
-12.7473
-12.9044
-13.0507
-13.1865
-13.3121
-13.4279
-13.5345
-13.6323
-13.7217
-13.8033
-13.8775
-13.9446
-14.005
-14.059
-14.1069
-14.149
-14.1854
-14.2163
-14.242
-14.2626
-10.3181
-10.3632
-10.4861
-10.6549
-10.8486
-11.0613
-11.2856
-11.5133
-11.7388
-11.9582
-12.1688
-12.3684
-12.5561
-12.7313
-12.8939
-13.044
-13.182
-13.3086
-13.4242
-13.5295
-13.6251
-13.7116
-13.7897
-13.8598
-13.9224
-13.978
-14.0269
-14.0696
-14.1063
-14.1375
-14.1633
-14.1842
-14.2003
-10.077
-10.1367
-10.2924
-10.4991
-10.7285
-10.9734
-11.2259
-11.4774
-11.7226
-11.9583
-12.182
-12.3922
-12.5881
-12.7694
-12.9363
-13.0892
-13.2286
-13.3552
-13.4697
-13.573
-13.6658
-13.7488
-13.8227
-13.888
-13.9455
-13.9956
-14.0388
-14.0755
-14.1062
-14.1313
-14.151
-14.1658
-14.1758
-9.77041
-9.83252
-10.0081
-10.2415
-10.5013
-10.7812
-11.0694
-11.3542
-11.6293
-11.8909
-12.1362
-12.3638
-12.5734
-12.765
-12.9392
-13.0968
-13.2389
-13.3665
-13.4806
-13.5822
-13.6725
-13.7521
-13.8221
-13.8831
-13.9358
-13.9809
-14.0189
-14.0503
-14.0757
-14.0954
-14.11
-14.1201
-14.1258
-9.40854
-9.5259
-9.78698
-10.0914
-10.4023
-10.7226
-11.0436
-11.3547
-11.6513
-11.931
-12.1913
-12.4312
-12.6504
-12.8493
-13.0286
-13.1893
-13.3325
-13.4595
-13.5717
-13.6701
-13.7561
-13.8307
-13.8949
-13.9496
-13.9956
-14.0337
-14.0645
-14.0886
-14.1065
-14.1187
-14.1258
-14.1282
-14.1265
-8.87883
-8.97001
-9.26868
-9.6408
-10.0324
-10.4362
-10.8315
-11.2046
-11.5518
-11.8712
-12.1617
-12.4238
-12.6588
-12.8686
-13.0548
-13.2194
-13.3643
-13.4913
-13.602
-13.6981
-13.7808
-13.8516
-13.9116
-13.9617
-14.0028
-14.0358
-14.0614
-14.08
-14.0924
-14.0989
-14.1003
-14.0972
-14.0904
-8.38327
-8.70576
-9.17392
-9.5933
-10.0042
-10.4338
-10.8538
-11.2508
-11.6231
-11.967
-12.2795
-12.5602
-12.8099
-13.0301
-13.2227
-13.3901
-13.5346
-13.6585
-13.7641
-13.8533
-13.928
-13.9898
-14.0401
-14.0803
-14.1114
-14.1343
-14.1497
-14.1582
-14.1602
-14.1563
-14.1466
-14.132
-14.1127
-7.08035
-7.40222
-8.1756
-8.87576
-9.51293
-10.1202
-10.6656
-11.1488
-11.5802
-11.9636
-12.3023
-12.6007
-12.8625
-13.091
-13.2894
-13.4605
-13.6071
-13.7316
-13.8364
-13.9237
-13.9955
-14.0536
-14.0996
-14.1348
-14.1605
-14.1776
-14.1868
-14.1887
-14.1835
-14.1712
-14.1512
-14.1248
-14.0873
-7.0677
-7.81282
-8.4177
-8.88533
-9.48618
-10.1207
-10.7122
-11.2632
-11.7675
-12.2145
-12.6033
-12.9373
-13.2208
-13.4586
-13.656
-13.8182
-13.9501
-14.0559
-14.1395
-14.2044
-14.2534
-14.2889
-14.3132
-14.3278
-14.3343
-14.3338
-14.3272
-14.3148
-14.2967
-14.2719
-14.2376
-14.1909
-14.1178
-0.816303
-5.42439
-7.20888
-8.06015
-9.0631
-9.9401
-10.6417
-11.2506
-11.7833
-12.2401
-12.63
-12.9612
-13.2401
-13.473
-13.6657
-13.8237
-13.9518
-14.0544
-14.1352
-14.1975
-14.2442
-14.2778
-14.3002
-14.3133
-14.3185
-14.3171
-14.3102
-14.2985
-14.283
-14.2635
-14.2425
-14.2151
-14.1928
-13.2622
-13.8479
-17.3926
-22.232
-27.4258
-31.9324
-34.9005
-36.0758
-35.5392
-33.7471
-31.2475
-28.2331
-24.3698
-19.1255
-12.5405
-5.64681
0.20267
4.21131
6.13449
5.77851
3.26461
-1.3116
-7.73821
-15.5801
-24.2052
-32.9143
-41.1482
-48.4897
-54.5498
-58.9284
-61.2766
-61.4556
-59.5025
-55.7588
-50.7029
-44.8184
-38.5014
-32.0801
-25.8931
-20.2708
-15.4226
-11.3903
-8.10777
-5.47508
-3.39363
-1.77378
-0.534917
0.394207
1.07506
1.55949
1.89044
2.103
2.22542
2.28015
2.28487
2.25333
2.19622
2.12182
2.03651
1.94521
1.85165
1.7586
1.66799
1.58108
1.49861
1.42088
1.34792
1.27956
1.21556
1.15567
1.09963
1.04719
0.998088
0.952037
0.908726
0.867825
0.829013
0.791979
0.756436
0.722127
0.688775
0.656129
0.623924
0.591908
0.559854
0.527574
0.49492
0.461792
0.428111
0.393856
0.358964
0.32352
0.28734
0.250856
0.213153
0.176236
0.135768
0.101072
0.0522386
0.0320056
-13.4404
-13.967
-17.2875
-21.8424
-26.5786
-30.6851
-33.4771
-34.7645
-34.4407
-32.8294
-30.3638
-27.2382
-23.2566
-18.1398
-12.0936
-5.9999
-0.876771
2.66748
4.45126
4.26416
2.0364
-2.06031
-7.87873
-15.0629
-23.0662
-31.2592
-39.0757
-46.0641
-51.8259
-55.9845
-58.2299
-58.4359
-56.6408
-53.1659
-48.4555
-42.9407
-36.9789
-30.9021
-25.0645
-19.7792
-15.2148
-11.39
-8.24423
-5.69476
-3.65908
-2.05924
-0.822934
0.115015
0.811658
1.31572
1.66804
1.90231
2.04589
2.12075
2.14427
2.1301
2.08889
2.02894
1.95668
1.87706
1.79388
1.70995
1.6273
1.54728
1.47071
1.39801
1.32931
1.26454
1.20356
1.14618
1.09221
1.04145
0.993711
0.948741
0.906274
0.866027
0.827716
0.79107
0.755832
0.72176
0.688594
0.656092
0.624004
0.59208
0.560095
0.527867
0.49524
0.462125
0.42844
0.394167
0.359249
0.323772
0.287549
0.251026
0.213277
0.176333
0.13582
0.101103
0.0522663
0.0319235
-13.8509
-14.7357
-17.6858
-21.777
-26.076
-29.8322
-32.4612
-33.5631
-33.204
-31.5922
-29.0956
-25.9025
-21.943
-17.1366
-11.7474
-6.45864
-2.01814
1.0894
2.67512
2.6072
0.693828
-2.96794
-8.20895
-14.7295
-22.0548
-29.6436
-36.9644
-43.5492
-48.9878
-52.917
-55.053
-55.2831
-53.6583
-50.477
-46.1316
-40.9923
-35.3932
-29.6825
-24.221
-19.2867
-15.006
-11.3844
-8.37292
-5.90684
-3.91858
-2.34084
-1.10911
-0.164081
0.546972
1.06966
1.44268
1.69825
1.86284
1.95781
2.00023
2.0036
1.97851
1.93325
1.87427
1.80658
1.73401
1.65943
1.58496
1.51201
1.44151
1.37399
1.30969
1.24863
1.19077
1.136
1.0842
1.03523
0.98892
0.945087
0.903509
0.863947
0.826162
0.789922
0.755005
0.721186
0.688235
0.655915
0.623979
0.592181
0.560295
0.52814
0.495563
0.462476
0.428799
0.39452
0.359583
0.32408
0.287823
0.251267
0.213475
0.176503
0.13595
0.101208
0.0523819
0.0318988
-14.4141
-15.4494
-18.0617
-21.6804
-25.4645
-28.7476
-30.9763
-31.8632
-31.4301
-29.8441
-27.4016
-24.3007
-20.5728
-16.2396
-11.5387
-6.97925
-3.13113
-0.405192
0.977054
0.939379
-0.707514
-3.95832
-8.66157
-14.5427
-21.1865
-28.12
-34.8726
-40.9951
-46.077
-49.7606
-51.7811
-52.0457
-50.6174
-47.7509
-43.7694
-38.9959
-33.7669
-28.4496
-23.3863
-18.8052
-14.7991
-11.3727
-8.49233
-6.11014
-4.17123
-2.61782
-1.39278
-0.442477
0.281526
0.82175
1.2147
1.49112
1.67646
1.79148
1.85286
1.87391
1.86514
1.83479
1.78935
1.73382
1.6721
1.60712
1.54103
1.47537
1.41115
1.349
1.28926
1.23206
1.17745
1.12539
1.07583
1.02869
0.983869
0.941221
0.900577
0.861745
0.824528
0.788732
0.754168
0.720627
0.6879
0.655764
0.623978
0.592301
0.560511
0.528424
0.495892
0.462826
0.429152
0.394858
0.359894
0.324357
0.288058
0.251462
0.213622
0.176614
0.136022
0.101243
0.0524393
0.0318005
-15.0358
-16.1123
-18.3097
-21.3031
-24.4358
-27.1333
-28.9467
-29.6371
-29.1866
-27.7322
-25.5094
-22.6947
-19.3504
-15.5353
-11.458
-7.51838
-4.17576
-1.78664
-0.580934
-0.635751
-2.08374
-4.95973
-9.16202
-14.4492
-20.4501
-26.7359
-32.8856
-38.4941
-43.1773
-46.5933
-48.5025
-48.8223
-47.6025
-45.0366
-41.3891
-36.9684
-32.1279
-27.2311
-22.5751
-18.3381
-14.5938
-11.3546
-8.60284
-6.3049
-4.41694
-2.88988
-1.67354
-0.71978
0.0156856
0.572312
0.9844
1.28115
1.48696
1.62191
1.70228
1.74113
1.74885
1.73363
1.70194
1.65881
1.60816
1.55299
1.49551
1.43732
1.37956
1.32293
1.26788
1.21467
1.16341
1.11415
1.06692
1.0217
0.978426
0.937017
0.897351
0.859282
0.822657
0.787322
0.753122
0.719878
0.687404
0.655482
0.623879
0.592354
0.560685
0.528688
0.496218
0.463188
0.429526
0.395228
0.360244
0.32468
0.288345
0.251713
0.213831
0.176789
0.136163
0.101344
0.0525704
0.0317509
-15.5835
-16.6142
-18.4079
-20.7751
-23.2427
-25.37
-26.824
-27.3696
-26.9778
-25.7403
-23.8142
-21.3325
-18.3729
-15.0239
-11.4793
-8.06746
-5.16501
-3.07984
-2.02559
-2.09845
-3.39109
-5.93509
-9.66626
-14.3944
-19.7971
-25.481
-31.0529
-36.1442
-40.411
-43.552
-45.3552
-45.7232
-44.6725
-42.351
-39.0013
-34.9386
-30.5152
-26.0557
-21.7992
-17.8877
-14.39
-11.33
-8.70427
-6.49082
-4.6553
-3.15654
-1.95092
-0.995523
-0.250111
0.32174
0.752109
1.06861
1.29456
1.4493
1.54865
1.60538
1.62974
1.62984
1.61211
1.58161
1.54226
1.49711
1.44844
1.39794
1.34681
1.29587
1.24568
1.19658
1.14879
1.10244
1.05762
1.01437
0.9727
0.932579
0.893935
0.856671
0.820677
0.785841
0.752036
0.719112
0.686902
0.655202
0.623785
0.592415
0.560869
0.528965
0.496556
0.463557
0.429904
0.395594
0.360584
0.324985
0.288606
0.251931
0.214002
0.176917
0.136257
0.101384
0.0526515
0.031635
-15.938
-16.8901
-18.3701
-20.2514
-22.2037
-23.9
-25.0645
-25.5001
-25.159
-24.0913
-22.4047
-20.2094
-17.5921
-14.6539
-11.5729
-8.62163
-6.10975
-4.30084
-3.38509
-3.46563
-4.62286
-6.87211
-10.1648
-14.3544
-19.1803
-24.2971
-29.3374
-33.9531
-37.83
-40.7046
-42.3816
-42.7457
-41.7978
-39.6777
-36.628
-32.9548
-28.9717
-24.9437
-21.0629
-17.4531
-14.1869
-11.299
-8.79696
-6.66804
-4.8862
-3.41754
-2.22456
-1.26931
-0.515479
0.0703886
0.518143
0.853786
1.09949
1.27383
1.39211
1.46679
1.50792
1.52351
1.51995
1.50228
1.47444
1.43952
1.39986
1.35722
1.31289
1.26781
1.22261
1.17774
1.13352
1.09015
1.04782
1.00661
0.966609
0.927826
0.890244
0.853816
0.818477
0.784156
0.750762
0.718177
0.686255
0.654804
0.623602
0.592414
0.561015
0.529222
0.49689
0.463936
0.4303
0.395987
0.360956
0.325327
0.28891
0.252196
0.214224
0.177099
0.136412
0.101482
0.0527986
0.0315617
-16.1718
-17.0406
-18.2809
-19.7992
-21.3578
-22.7012
-23.6113
-23.9327
-23.6118
-22.6744
-21.1949
-19.2611
-16.9577
-14.3896
-11.7184
-9.17237
-7.00687
-5.44663
-4.66102
-4.74768
-5.78081
-7.76761
-10.6614
-14.342
-18.601
-23.1538
-27.6755
-31.84
-35.3513
-37.9557
-39.4706
-39.7941
-38.9395
-37.0451
-34.3364
-31.0789
-27.5294
-23.903
-20.3647
-17.0328
-13.9845
-11.2622
-8.88129
-6.83664
-5.10952
-3.67261
-2.49411
-1.54077
-0.780034
-0.181379
0.28283
0.636957
0.902002
1.09571
1.23285
1.32551
1.38352
1.41476
1.42555
1.42091
1.40479
1.38029
1.34983
1.31524
1.27789
1.23881
1.19874
1.15823
1.11767
1.07739
1.03761
0.998515
0.960229
0.92283
0.886353
0.850799
0.816151
0.782378
0.749422
0.717197
0.685577
0.654386
0.623408
0.59241
0.561166
0.52949
0.497238
0.464329
0.430707
0.396385
0.361327
0.32566
0.289199
0.252437
0.214418
0.177244
0.136526
0.101528
0.0529029
0.0314262
-16.3106
-17.0904
-18.1308
-19.3575
-20.5958
-21.6531
-22.36
-22.5903
-22.2882
-21.4617
-20.1624
-18.4625
-16.4433
-14.2071
-11.8981
-9.70775
-7.84795
-6.50989
-5.84356
-5.93871
-6.86058
-8.6153
-11.1553
-14.3749
-18.0992
-22.0937
-26.0852
-29.7851
-32.9201
-35.2455
-36.6019
-36.912
-36.1933
-34.564
-32.2118
-29.353
-26.1976
-22.9298
-19.7008
-16.6257
-13.7833
-11.2204
-8.95779
-6.99689
-5.32528
-3.92161
-2.75931
-1.80958
-1.04343
-0.433228
0.0464814
0.418406
0.702338
0.915168
1.07106
1.18171
1.25669
1.30372
1.32903
1.3376
1.33339
1.31951
1.29843
1.27205
1.24183
1.20889
1.17408
1.13803
1.10124
1.06412
1.02697
0.990036
0.953516
0.917545
0.882208
0.847558
0.813623
0.780414
0.747913
0.716065
0.68477
0.653863
0.623135
0.592351
0.561284
0.529744
0.497586
0.464732
0.431133
0.396807
0.361728
0.326028
0.289525
0.252719
0.214657
0.177436
0.136695
0.101625
0.0530674
0.0313288
-16.3771
-17.0683
-17.9413
-18.9349
-19.9208
-20.7519
-21.2937
-21.4439
-21.1513
-20.4158
-19.2744
-17.7865
-16.026
-14.0875
-12.0984
-10.2202
-8.62981
-7.48953
-6.93043
-7.03453
-7.85799
-9.40678
-11.6363
-14.4505
-17.698
-21.1783
-24.6602
-27.8982
-30.654
-32.7174
-33.9496
-34.2729
-33.6997
-32.3226
-30.2906
-27.7792
-24.9665
-22.0164
-19.0685
-16.2319
-13.5843
-11.1743
-9.02708
-7.1491
-5.53357
-4.16444
-3.01996
-2.07544
-1.30537
-0.684843
-0.190601
0.198415
0.500759
0.732426
0.906942
1.03557
1.12759
1.19054
1.23053
1.25249
1.26036
1.25728
1.24575
1.22774
1.20481
1.17814
1.1487
1.11722
1.08429
1.0504
1.01594
0.981232
0.946527
0.912024
0.877864
0.844151
0.81096
0.778341
0.746318
0.714867
0.683911
0.653301
0.622836
0.592279
0.561402
0.530007
0.49795
0.465153
0.431574
0.397241
0.362134
0.326393
0.289842
0.252984
0.214873
0.177597
0.13683
0.101676
0.0531936
0.0311725
-16.3856
-16.9923
-17.7239
-18.5291
-19.3116
-19.9591
-20.3663
-20.4517
-20.1704
-19.5167
-18.5168
-17.2194
-15.6907
-14.0167
-12.309
-10.7043
-9.35051
-8.3852
-7.92184
-8.0342
-8.77067
-10.1362
-12.0916
-14.5514
-17.3832
-20.4142
-23.4457
-26.2681
-28.6808
-30.5081
-31.6227
-31.9482
-31.4909
-30.3203
-28.5539
-26.337
-23.823
-21.1574
-18.4666
-15.8521
-13.3885
-11.125
-9.08982
-7.2937
-5.73458
-4.40112
-3.27592
-2.33817
-1.56558
-0.935946
-0.428134
-0.0227443
0.297522
0.547727
0.740725
0.887308
0.996419
1.07539
1.13021
1.16572
1.18583
1.19371
1.19189
1.18241
1.16688
1.14662
1.12265
1.09583
1.06684
1.03625
1.00454
0.972099
0.93925
0.906249
0.873295
0.840543
0.808114
0.776102
0.744572
0.713534
0.682936
0.652645
0.622465
0.59216
0.561493
0.530263
0.498321
0.465591
0.43204
0.397704
0.362571
0.326792
0.290196
0.253289
0.215133
0.177803
0.137016
0.101775
0.0533772
0.0310518
-16.3501
-16.8783
-17.4903
-18.1429
-18.7628
-19.2642
-19.5648
-19.599
-19.3285
-18.7458
-17.8701
-16.7424
-15.4206
-13.9812
-12.5211
-11.1559
-10.0094
-9.19797
-8.8192
-8.93859
-9.59753
-10.8002
-12.5122
-14.6594
-17.127
-19.7667
-22.4073
-24.8692
-26.9807
-28.5894
-29.5836
-29.8953
-29.5224
-28.5165
-26.9715
-25.0086
-22.7591
-20.3503
-17.8953
-15.4872
-13.1969
-11.0734
-9.14677
-7.43121
-5.92861
-4.63175
-3.52717
-2.59761
-1.82386
-1.1863
-0.665862
-0.24481
0.0928833
0.361319
0.572643
0.737136
0.863384
0.958483
1.02825
1.07746
1.10997
1.12896
1.137
1.13617
1.12817
1.11441
1.09602
1.07394
1.04896
1.02173
0.992816
0.962685
0.931727
0.900261
0.868542
0.836776
0.805133
0.77375
0.742731
0.712121
0.681895
0.651937
0.622059
0.592021
0.561581
0.530528
0.498709
0.466051
0.432525
0.398181
0.363017
0.327192
0.290544
0.253579
0.215372
0.177979
0.137168
0.101828
0.0535238
0.0308727
-16.2806
-16.7374
-17.248
-17.7762
-18.2655
-18.6499
-18.8654
-18.8599
-18.6018
-18.0832
-17.3188
-16.3425
-15.2047
-13.9724
-12.7291
-11.5725
-10.6067
-9.92986
-9.62523
-9.74997
-10.3395
-11.3973
-12.8935
-14.7635
-16.9093
-19.2035
-21.4995
-23.6429
-25.4849
-26.8943
-27.7734
-28.0621
-27.752
-26.8813
-25.5254
-23.7847
-21.7705
-19.5936
-17.3543
-15.1378
-13.0105
-11.0204
-9.1988
-7.56229
-6.11609
-4.85655
-3.77376
-2.85371
-2.08008
-1.4357
-0.903561
-0.467542
-0.112908
0.173453
0.402944
0.585301
0.728721
0.84003
0.924875
0.98791
1.03297
1.0632
1.08121
1.08915
1.0888
1.08163
1.0689
1.05163
1.0307
1.00688
0.980804
0.953016
0.923977
0.894069
0.863605
0.832841
0.801997
0.771254
0.740757
0.710588
0.68075
0.651144
0.621589
0.591842
0.561652
0.530795
0.499114
0.466537
0.433043
0.398694
0.3635
0.32763
0.290931
0.253911
0.215656
0.178202
0.137373
0.101931
0.0537286
0.0307298
-16.1859
-16.5787
-17.0034
-17.4302
-17.8148
-18.1066
-18.2557
-18.221
-17.9768
-17.516
-16.8502
-16.0076
-15.0321
-13.9815
-12.9274
-11.9524
-11.1435
-10.5834
-10.3429
-10.4712
-10.9985
-11.9276
-13.2324
-14.8574
-16.7183
-18.7065
-20.6965
-22.5562
-24.1565
-25.3864
-26.1583
-26.4188
-26.1561
-25.398
-24.2045
-22.6582
-20.8533
-18.8854
-16.8435
-14.8044
-12.8302
-10.9672
-9.24683
-7.68767
-6.29754
-5.07587
-4.01587
-3.10651
-2.33418
-1.68404
-1.14105
-0.690722
-0.319612
-0.0156183
0.231888
0.432065
0.592689
0.720289
0.820316
0.897304
0.955024
0.99662
1.02472
1.04153
1.0489
1.0484
1.04138
1.02897
1.01215
0.991768
0.968554
0.943132
0.916034
0.887703
0.858511
0.828767
0.798737
0.768648
0.738687
0.708971
0.679533
0.650293
0.621078
0.591641
0.561718
0.531073
0.49954
0.467047
0.433584
0.399224
0.363993
0.328069
0.291311
0.254225
0.215916
0.178392
0.137543
0.101986
0.0538939
0.0305257
-16.0729
-16.4089
-16.7613
-17.1051
-17.4059
-17.6245
-17.7221
-17.6667
-17.4377
-17.0294
-16.4511
-15.727
-14.8941
-14.0025
-13.113
-12.295
-11.6217
-11.1622
-10.9764
-11.1065
-11.5777
-12.3924
-13.5278
-14.9363
-16.5458
-18.2637
-19.983
-21.5906
-22.9766
-24.0429
-24.7149
-24.9442
-24.7169
-24.0526
-22.9985
-21.6223
-20.0034
-18.2241
-16.3624
-14.4877
-12.6572
-10.9148
-9.29191
-7.80821
-6.47363
-5.29017
-4.25379
-3.35616
-2.58618
-1.93123
-1.37819
-0.914166
-0.527005
-0.205643
0.0597453
0.277708
0.45557
0.599541
0.714852
0.805903
0.876394
0.929453
0.967729
0.993479
1.00864
1.01487
1.0136
1.00608
0.993394
0.976475
0.956141
0.933098
0.907949
0.881202
0.853288
0.824568
0.795357
0.765926
0.736504
0.707249
0.678222
0.649365
0.620511
0.591409
0.561778
0.531367
0.499998
0.467599
0.434171
0.399801
0.364533
0.328556
0.291739
0.25459
0.216229
0.178635
0.13777
0.102096
0.0541226
0.0303618
-15.9473
-16.2335
-16.5249
-16.801
-17.0349
-17.1962
-17.2547
-17.1857
-16.9732
-16.6126
-16.112
-15.4917
-14.7836
-14.0301
-13.2829
-12.6003
-12.0433
-11.6699
-11.5301
-11.6601
-12.0806
-12.7935
-13.7792
-14.9967
-16.3847
-17.8643
-19.3444
-20.7287
-21.9226
-22.8425
-23.4223
-23.6191
-23.418
-22.8317
-21.8975
-20.6705
-19.2171
-17.6078
-15.9109
-14.1883
-12.4923
-10.8644
-9.33515
-7.9249
-6.64516
-5.50005
-4.48794
-3.60292
-2.83621
-2.17731
-1.61492
-1.13773
-0.734883
-0.396373
-0.113204
0.122532
0.31768
0.478102
0.608794
0.714006
0.797361
0.861961
0.910478
0.945224
0.968208
0.981185
0.985692
0.983077
0.974522
0.961063
0.943607
0.922941
0.899741
0.874581
0.84795
0.820261
0.791875
0.763109
0.734234
0.705445
0.676838
0.648375
0.6199
0.591153
0.561836
0.531677
0.500483
0.468181
0.434783
0.400396
0.365081
0.329038
0.292153
0.25493
0.21651
0.178837
0.137954
0.102149
0.0543049
0.0301295
-15.814
-16.0568
-16.297
-16.5181
-16.6987
-16.8153
-16.8447
-16.7677
-16.5721
-16.2549
-15.8229
-15.2937
-14.6941
-14.0603
-13.4357
-12.8691
-12.4114
-12.111
-12.0095
-12.1374
-12.512
-13.1343
-13.9877
-15.037
-16.23
-17.4999
-18.7693
-19.9559
-20.9794
-21.7677
-22.2631
-22.4273
-22.245
-21.724
-20.893
-19.7969
-18.4909
-17.035
-15.4887
-13.9067
-12.3367
-10.8172
-9.37777
-8.03883
-6.81305
-5.70626
-4.71888
-3.84719
-3.08454
-2.42239
-1.85124
-1.36131
-0.943071
-0.587568
-0.28667
-0.0331399
0.17936
0.356324
0.502492
0.621954
0.718247
0.794448
0.853249
0.897016
0.92784
0.947571
0.957848
0.960126
0.955691
0.945678
0.931084
0.912779
0.891512
0.867925
0.842562
0.815891
0.788319
0.76021
0.731876
0.703554
0.675372
0.647319
0.619244
0.590879
0.561905
0.532022
0.50102
0.468825
0.435462
0.401057
0.365693
0.329584
0.29263
0.255333
0.216857
0.179104
0.138208
0.102267
0.0545609
0.0299449
-15.6762
-15.8815
-16.0791
-16.2554
-16.3938
-16.4759
-16.4841
-16.4036
-16.2253
-15.9474
-15.576
-15.1261
-14.6205
-14.0896
-13.5699
-13.1022
-12.7287
-12.4895
-12.4191
-12.5433
-12.8759
-13.4177
-14.1542
-15.0555
-16.0773
-17.163
-18.247
-19.2595
-20.1321
-20.8028
-21.2215
-21.3539
-21.185
-20.7188
-19.9771
-18.9961
-17.8216
-16.5042
-15.0954
-13.6435
-12.1913
-10.7745
-9.42106
-8.15124
-6.9784
-5.90972
-4.94737
-4.08954
-3.33153
-2.66669
-2.08723
-1.58488
-1.15142
-0.778996
-0.460355
-0.188961
0.0409896
0.234601
0.396343
0.530133
0.63942
0.727253
0.796346
0.849124
0.887761
0.914206
0.930209
0.937331
0.936967
0.930354
0.918582
0.902605
0.883247
0.861215
0.837112
0.811454
0.784696
0.757242
0.729448
0.701591
0.673838
0.646202
0.618542
0.590583
0.561976
0.532389
0.501591
0.469504
0.436168
0.401733
0.366305
0.330115
0.29308
0.255697
0.217156
0.179314
0.138403
0.102315
0.0547586
0.0296803
-15.5376
-15.7108
-15.8728
-16.0128
-16.1179
-16.1738
-16.1669
-16.0863
-15.9251
-15.6826
-15.3645
-14.9834
-14.5586
-14.1159
-13.6855
-13.3015
-12.9987
-12.8103
-12.7649
-12.8837
-13.1781
-13.6481
-14.2814
-15.0527
-15.9244
-16.8487
-17.77
-18.6294
-19.3687
-19.9347
-20.284
-20.3863
-20.2268
-19.8067
-19.1425
-18.263
-17.2059
-16.0137
-14.7307
-13.3992
-12.0573
-10.7376
-9.46644
-8.26351
-7.14248
-6.11155
-5.17432
-4.33069
-3.57773
-2.91057
-2.32306
-1.80846
-1.35983
-0.970438
-0.633952
-0.34456
-0.0970163
0.113371
0.290791
0.438982
0.561303
0.660777
0.740148
0.801902
0.848303
0.881406
0.903071
0.914974
0.918618
0.915344
0.906335
0.892631
0.87513
0.854607
0.83172
0.807038
0.78106
0.754235
0.726962
0.69956
0.672235
0.645028
0.617808
0.590286
0.562081
0.532821
0.502247
0.470276
0.436969
0.4025
0.367005
0.330732
0.293615
0.256145
0.217541
0.179609
0.138687
0.102444
0.055046
0.0294741
-15.3996
-15.5453
-15.6779
-15.7887
-15.8677
-15.9038
-15.8867
-15.8083
-15.6638
-15.4531
-15.1815
-14.8598
-14.5043
-14.1365
-13.7817
-13.468
-13.2241
-13.0774
-13.0513
-13.1633
-13.4224
-13.8286
-14.371
-15.0282
-15.7686
-16.5516
-17.3307
-18.056
-18.6779
-19.1513
-19.4386
-19.5128
-19.3599
-18.9791
-18.3825
-17.5928
-16.6408
-15.5621
-14.3944
-13.1742
-11.9356
-10.7079
-9.51544
-8.37717
-7.30674
-6.31305
-5.40087
-4.57156
-3.82386
-3.15453
-2.55905
-2.03215
-1.56823
-1.16169
-0.807141
-0.49953
-0.234195
-0.00686972
0.18634
0.348994
0.48436
0.595444
0.685022
0.755656
0.809706
0.849341
0.87654
0.893099
0.900636
0.900596
0.894264
0.882763
0.867068
0.848017
0.826325
0.802606
0.777401
0.751197