/*--------------------------------*- C++ -*----------------------------------*\
| =========                 |                                                 |
| \\      /  F ield         | OpenFOAM: The Open Source CFD Toolbox           |
|  \\    /   O peration     | Version:  2.1.1                                 |
|   \\  /    A nd           | Web:      www.OpenFOAM.org                      |
|    \\/     M anipulation  |                                                 |
\*---------------------------------------------------------------------------*/
FoamFile
{
    version     2.0;
    format      ascii;
    class       surfaceScalarField;
    location    "0.06";
    object      phi;
}
// * * * * * * * * * * * * * * * * * * * * * * * * * * * * * * * * * * * * * //

dimensions      [0 3 -1 0 0 0 0];

internalField   nonuniform List<scalar> 
13452
(
4.59969e-05
2.24903e-05
2.96586e-05
1.63384e-05
2.1178e-05
8.48053e-06
1.72717e-05
3.90639e-06
1.56234e-05
1.64824e-06
1.48085e-05
8.14927e-07
1.42901e-05
5.18367e-07
1.38913e-05
3.98853e-07
1.35517e-05
3.39593e-07
1.32557e-05
2.96012e-07
1.29984e-05
2.57301e-07
1.27755e-05
2.22839e-07
1.25824e-05
1.93084e-07
1.24143e-05
1.6816e-07
1.22665e-05
1.47778e-07
1.2135e-05
1.31465e-07
1.20163e-05
1.18765e-07
1.19069e-05
1.09321e-07
1.1804e-05
1.02916e-07
1.17046e-05
9.94687e-08
1.16055e-05
9.90434e-08
1.15037e-05
1.01849e-07
1.13954e-05
1.08254e-07
1.12766e-05
1.18809e-07
1.11423e-05
1.34282e-07
1.09866e-05
1.55773e-07
1.08019e-05
1.84622e-07
1.05786e-05
2.23364e-07
1.03051e-05
2.73464e-07
9.95986e-06
3.45244e-07
9.53037e-06
4.29489e-07
8.92152e-06
6.08845e-07
6.69295e-07
8.25223e-06
7.49114e-05
1.80228e-05
7.04072e-05
2.08426e-05
6.33116e-05
1.55761e-05
5.66498e-05
1.05682e-05
5.15257e-05
6.77233e-06
4.78622e-05
4.47846e-06
4.52331e-05
3.14744e-06
4.32963e-05
2.33573e-06
4.18182e-05
1.81765e-06
4.06489e-05
1.46536e-06
3.96956e-05
1.21056e-06
3.89001e-05
1.01831e-06
3.82241e-05
8.69111e-07
3.76412e-05
7.51119e-07
3.71323e-05
6.56665e-07
3.66832e-05
5.80577e-07
3.62826e-05
5.19307e-07
3.59215e-05
4.70437e-07
3.5592e-05
4.3238e-07
3.52873e-05
4.04189e-07
3.50009e-05
3.85445e-07
3.47266e-05
3.76192e-07
3.44579e-05
3.76933e-07
3.4188e-05
3.88649e-07
3.39094e-05
4.12883e-07
3.36133e-05
4.519e-07
3.32891e-05
5.08849e-07
3.29239e-05
5.88592e-07
3.25003e-05
6.97069e-07
3.19976e-05
8.47937e-07
3.13767e-05
1.05038e-06
3.06265e-05
1.35898e-06
1.81486e-06
2.9481e-05
7.85206e-05
1.19587e-05
8.23322e-05
1.70311e-05
8.29858e-05
1.49225e-05
8.14637e-05
1.20902e-05
7.89325e-05
9.30351e-06
7.62362e-05
7.17479e-06
7.37064e-05
5.67724e-06
7.14465e-05
4.59569e-06
6.94695e-05
3.79461e-06
6.77508e-05
3.18404e-06
6.62568e-05
2.70454e-06
6.49552e-05
2.31997e-06
6.3817e-05
2.00732e-06
6.28173e-05
1.75075e-06
6.19352e-05
1.53884e-06
6.11525e-05
1.36326e-06
6.04539e-05
1.21783e-06
5.98264e-05
1.09802e-06
5.92582e-05
1.00056e-06
5.87392e-05
9.23218e-07
5.82599e-05
8.64659e-07
5.78118e-05
8.24339e-07
5.73862e-05
8.02489e-07
5.69747e-05
8.00143e-07
5.65684e-05
8.19244e-07
5.61574e-05
8.62839e-07
5.57309e-05
9.35374e-07
5.52761e-05
1.04345e-06
5.4777e-05
1.19611e-06
5.42161e-05
1.40887e-06
5.35658e-05
1.70069e-06
5.281e-05
2.11477e-06
2.71174e-06
5.19131e-05
7.81462e-05
8.33912e-06
8.19213e-05
1.3256e-05
8.46153e-05
1.22285e-05
8.62346e-05
1.04709e-05
8.69081e-05
8.63004e-06
8.69882e-05
7.09463e-06
8.67174e-05
5.94803e-06
8.6238e-05
5.07515e-06
8.56413e-05
4.39127e-06
8.49831e-05
3.84227e-06
8.42977e-05
3.38991e-06
8.36076e-05
3.01005e-06
8.29282e-05
2.68673e-06
8.22698e-05
2.40916e-06
8.16384e-05
2.17029e-06
8.10369e-05
1.96472e-06
8.04664e-05
1.78833e-06
7.99264e-05
1.63804e-06
7.94153e-05
1.51166e-06
7.89307e-05
1.40778e-06
7.84697e-05
1.32572e-06
7.80285e-05
1.26552e-06
7.7603e-05
1.228e-06
7.71883e-05
1.21477e-06
7.67791e-05
1.22849e-06
7.63689e-05
1.27299e-06
7.59506e-05
1.35372e-06
7.55158e-05
1.47828e-06
7.50547e-05
1.65714e-06
7.45582e-05
1.90541e-06
7.40153e-05
2.24361e-06
7.34286e-05
2.70146e-06
3.32316e-06
7.28172e-05
7.89909e-05
6.00406e-06
8.1589e-05
1.0658e-05
8.35138e-05
1.03037e-05
8.49553e-05
9.02941e-06
8.59707e-05
7.61469e-06
8.67083e-05
6.357e-06
8.72703e-05
5.38605e-06
8.77044e-05
4.64106e-06
8.80419e-05
4.05374e-06
8.83039e-05
3.58028e-06
8.85045e-05
3.1893e-06
8.86547e-05
2.85986e-06
8.87622e-05
2.57922e-06
8.88329e-05
2.33848e-06
8.88726e-05
2.13061e-06
8.88865e-05
1.95077e-06
8.88792e-05
1.79566e-06
8.88542e-05
1.663e-06
8.88146e-05
1.55132e-06
8.87625e-05
1.45987e-06
8.86996e-05
1.38858e-06
8.86271e-05
1.33804e-06
8.85456e-05
1.30955e-06
8.84551e-05
1.3052e-06
8.83556e-05
1.32804e-06
8.82463e-05
1.38224e-06
8.81266e-05
1.47342e-06
8.79959e-05
1.60901e-06
8.78542e-05
1.79881e-06
8.77044e-05
2.05522e-06
8.75535e-05
2.3945e-06
8.7422e-05
2.83299e-06
3.38945e-06
8.73557e-05
8.04625e-05
4.38743e-06
8.2503e-05
8.61751e-06
8.39865e-05
8.8202e-06
8.50426e-05
7.97328e-06
8.57614e-05
6.89586e-06
8.62715e-05
5.84689e-06
8.66742e-05
4.98334e-06
8.70167e-05
4.29859e-06
8.73221e-05
3.74839e-06
8.76018e-05
3.30057e-06
8.78608e-05
2.93031e-06
8.81014e-05
2.61917e-06
8.8326e-05
2.35462e-06
8.85364e-05
2.1281e-06
8.87336e-05
1.93346e-06
8.89182e-05
1.76611e-06
8.90912e-05
1.62274e-06
8.92531e-05
1.50103e-06
8.9405e-05
1.39949e-06
8.95475e-05
1.31729e-06
8.96818e-05
1.25429e-06
8.98089e-05
1.21096e-06
8.993e-05
1.1884e-06
9.00468e-05
1.18843e-06
9.01612e-05
1.21367e-06
9.02758e-05
1.26761e-06
9.03944e-05
1.35483e-06
9.05224e-05
1.48106e-06
9.06678e-05
1.65338e-06
9.08433e-05
1.87974e-06
9.1069e-05
2.16875e-06
9.13759e-05
2.52617e-06
2.94835e-06
9.1817e-05
8.22336e-05
3.2524e-06
8.38922e-05
6.95889e-06
8.51773e-05
7.53508e-06
8.61076e-05
7.04297e-06
8.67454e-05
6.25811e-06
8.71807e-05
5.4116e-06
8.75013e-05
4.66269e-06
8.77567e-05
4.04326e-06
8.79733e-05
3.53174e-06
8.81667e-05
3.10723e-06
8.83448e-05
2.75215e-06
8.85121e-05
2.45193e-06
8.86708e-05
2.19588e-06
8.88225e-05
1.97638e-06
8.89682e-05
1.78777e-06
8.91085e-05
1.62582e-06
8.92439e-05
1.48737e-06
8.93747e-05
1.37019e-06
8.95014e-05
1.27276e-06
8.96245e-05
1.1942e-06
8.97446e-05
1.1342e-06
8.98626e-05
1.09301e-06
8.99795e-05
1.07142e-06
9.00972e-05
1.07079e-06
9.02178e-05
1.09304e-06
9.03447e-05
1.14072e-06
9.04826e-05
1.21693e-06
9.06384e-05
1.3253e-06
9.08221e-05
1.46968e-06
9.10483e-05
1.65348e-06
9.13389e-05
1.87821e-06
9.17236e-05
2.14144e-06
2.42801e-06
9.22439e-05
8.4216e-05
2.45191e-06
8.55483e-05
5.62661e-06
8.66679e-05
6.41553e-06
8.75221e-05
6.18875e-06
8.81441e-05
5.63609e-06
8.85868e-05
4.96887e-06
8.89156e-05
4.33396e-06
8.91739e-05
3.78489e-06
8.93875e-05
3.31812e-06
8.95725e-05
2.92233e-06
8.97382e-05
2.58644e-06
8.98902e-05
2.29985e-06
9.00321e-05
2.054e-06
9.01661e-05
1.84245e-06
9.02935e-05
1.66028e-06
9.04157e-05
1.50368e-06
9.05333e-05
1.36976e-06
9.06471e-05
1.2564e-06
9.07577e-05
1.16214e-06
9.08659e-05
1.08605e-06
9.09723e-05
1.02772e-06
9.10782e-05
9.87192e-07
9.11846e-05
9.64943e-07
9.12936e-05
9.61859e-07
9.14074e-05
9.79198e-07
9.15296e-05
1.01853e-06
9.16649e-05
1.08159e-06
9.18202e-05
1.17005e-06
9.20048e-05
1.28503e-06
9.2232e-05
1.42634e-06
9.25195e-05
1.5907e-06
9.28904e-05
1.77048e-06
1.94721e-06
9.33712e-05
8.63714e-05
1.87922e-06
8.7439e-05
4.55902e-06
8.84079e-05
5.4466e-06
8.91822e-05
5.41447e-06
8.9775e-05
5.04328e-06
9.0217e-05
4.52686e-06
9.05554e-05
3.9956e-06
9.08266e-05
3.51373e-06
9.1053e-05
3.09164e-06
9.12494e-05
2.72598e-06
9.14248e-05
2.41097e-06
9.15851e-05
2.13956e-06
9.17339e-05
1.90521e-06
9.18737e-05
1.70266e-06
9.20063e-05
1.5277e-06
9.2133e-05
1.37697e-06
9.22549e-05
1.24788e-06
9.23728e-05
1.13843e-06
9.24878e-05
1.04721e-06
9.26006e-05
9.73243e-07
9.27123e-05
9.15993e-07
9.28242e-05
8.75278e-07
9.29379e-05
8.51238e-07
9.30555e-05
8.44272e-07
9.31798e-05
8.54957e-07
9.33144e-05
8.83924e-07
9.34643e-05
9.31649e-07
9.36362e-05
9.98139e-07
9.38389e-05
1.08235e-06
9.40837e-05
1.1815e-06
9.43849e-05
1.28952e-06
9.47592e-05
1.39622e-06
1.48374e-06
9.52227e-05
8.86669e-05
1.46229e-06
8.95225e-05
3.70347e-06
9.03579e-05
4.61114e-06
9.10567e-05
4.71568e-06
9.1616e-05
4.48401e-06
9.2051e-05
4.09188e-06
9.23936e-05
3.653e-06
9.26729e-05
3.23437e-06
9.29086e-05
2.85598e-06
9.31138e-05
2.52082e-06
9.32973e-05
2.22741e-06
9.34651e-05
1.97181e-06
9.36209e-05
1.74942e-06
9.37673e-05
1.55618e-06
9.39064e-05
1.38862e-06
9.40396e-05
1.24384e-06
9.41679e-05
1.11951e-06
9.42926e-05
1.01379e-06
9.44145e-05
9.25271e-07
9.45348e-05
8.52941e-07
9.46547e-05
7.96103e-07
9.47756e-05
7.54336e-07
9.48995e-05
7.27424e-07
9.50284e-05
7.15278e-07
9.51656e-05
7.17822e-07
9.53147e-05
7.34836e-07
9.54806e-05
7.65708e-07
9.56696e-05
8.0911e-07
9.58895e-05
8.62452e-07
9.61497e-05
9.21324e-07
9.64609e-05
9.78348e-07
9.68345e-05
1.02264e-06
1.03867e-06
9.72795e-05
9.10807e-05
1.15291e-06
9.17683e-05
3.01588e-06
9.24876e-05
3.89177e-06
9.31176e-05
4.08574e-06
9.36424e-05
3.95921e-06
9.40664e-05
3.66789e-06
9.44097e-05
3.30971e-06
9.46947e-05
2.94933e-06
9.4938e-05
2.61266e-06
9.51513e-05
2.30752e-06
9.53428e-05
2.0359e-06
9.55182e-05
1.79647e-06
9.56812e-05
1.58645e-06
9.58345e-05
1.40284e-06
9.59802e-05
1.2429e-06
9.61199e-05
1.10418e-06
9.62548e-05
9.84612e-07
9.63861e-05
8.82478e-07
9.65149e-05
7.96404e-07
9.66426e-05
7.25302e-07
9.67704e-05
6.68328e-07
9.68999e-05
6.24817e-07
9.70331e-05
5.94214e-07
9.71724e-05
5.75977e-07
9.73208e-05
5.69449e-07
9.74819e-05
5.7369e-07
9.76604e-05
5.87236e-07
9.78617e-05
6.07798e-07
9.80923e-05
6.31819e-07
9.83596e-05
6.54068e-07
9.8671e-05
6.66908e-07
9.90337e-05
6.59945e-07
6.20541e-07
9.94518e-05
9.35991e-05
9.18513e-07
9.41544e-05
2.46049e-06
9.47732e-05
3.27302e-06
9.53399e-05
3.51901e-06
9.58301e-05
3.46907e-06
9.62405e-05
3.25744e-06
9.65824e-05
2.96784e-06
9.68719e-05
2.65981e-06
9.71224e-05
2.36213e-06
9.73439e-05
2.08607e-06
9.75437e-05
1.83614e-06
9.7727e-05
1.61314e-06
9.78976e-05
1.41579e-06
9.80584e-05
1.24212e-06
9.82112e-05
1.09002e-06
9.83579e-05
9.57501e-07
9.84998e-05
8.42725e-07
9.86382e-05
7.44108e-07
9.87743e-05
6.60296e-07
9.89094e-05
5.9014e-07
9.90451e-05
5.32648e-07
9.9183e-05
4.86932e-07
9.93251e-05
4.52128e-07
9.94738e-05
4.27302e-07
9.96319e-05
4.11319e-07
9.98029e-05
4.02685e-07
9.99908e-05
3.99332e-07
0.0001002
3.98371e-07
0.000100436
3.95778e-07
0.000100704
3.86126e-07
0.000101009
3.62193e-07
0.000101354
3.14741e-07
2.34047e-07
0.000101741
9.62135e-05
7.37124e-07
9.66653e-05
2.00868e-06
9.71978e-05
2.74054e-06
9.77072e-05
3.00956e-06
9.81637e-05
3.0126e-06
9.85589e-05
2.86224e-06
9.88972e-05
2.62957e-06
9.91893e-05
2.36762e-06
9.94458e-05
2.10569e-06
9.96747e-05
1.85715e-06
9.98825e-05
1.62836e-06
0.000100074
1.42168e-06
0.000100253
1.2371e-06
0.000100421
1.07354e-06
0.000100582
9.29471e-07
0.000100736
8.03282e-07
0.000100885
6.93381e-07
0.000101031
5.98293e-07
0.000101175
5.16684e-07
0.000101318
4.47345e-07
0.000101461
3.89154e-07
0.000101607
3.41027e-07
0.000101757
3.01844e-07
0.000101914
2.70356e-07
0.00010208
2.45066e-07
0.000102259
2.241e-07
0.000102453
2.05033e-07
0.000102667
1.84672e-07
0.000102904
1.58933e-07
0.000103167
1.22632e-07
0.00010346
6.93714e-08
0.000103784
-8.6416e-09
-1.18559e-07
0.000104136
9.89191e-05
5.93778e-07
9.92899e-05
1.63782e-06
9.97492e-05
2.28127e-06
0.000100207
2.55157e-06
0.000100631
2.5883e-06
0.00010101
2.48339e-06
0.000101343
2.29666e-06
0.000101637
2.07425e-06
0.000101898
1.84434e-06
0.000102134
1.62136e-06
0.000102349
1.41277e-06
0.000102549
1.22208e-06
0.000102736
1.05025e-06
0.000102912
8.96903e-07
0.000103081
7.61028e-07
0.000103243
6.41335e-07
0.0001034
5.3644e-07
0.000103553
4.44971e-07
0.000103704
3.65614e-07
0.000103854
2.9711e-07
0.000104005
2.38233e-07
0.000104159
1.87741e-07
0.000104316
1.44316e-07
0.00010448
1.06479e-07
0.000104653
7.24983e-08
0.000104836
4.02735e-08
0.000105034
7.26449e-09
0.000105249
-2.98328e-08
0.000105482
-7.48105e-08
0.000105737
-1.32382e-07
0.000106015
-2.07943e-07
0.000106314
-3.0777e-07
-4.36773e-07
0.000106632
0.000101713
4.78165e-07
0.000102021
1.33014e-06
0.000102419
1.88355e-06
0.000102831
2.13927e-06
0.000103225
2.19404e-06
0.000103588
2.12109e-06
0.000103914
1.97024e-06
0.000104207
1.78091e-06
0.000104473
1.57913e-06
0.000104715
1.37942e-06
0.000104937
1.18985e-06
0.000105145
1.01459e-06
0.00010534
8.55318e-07
0.000105525
7.12196e-07
0.000105701
5.8462e-07
0.000105871
4.71575e-07
0.000106035
3.71851e-07
0.000106196
2.84165e-07
0.000106355
2.07222e-07
0.000106512
1.39728e-07
0.00010667
8.03763e-08
0.00010683
2.78129e-08
0.000106993
-1.9417e-08
0.000107163
-6.29308e-08
0.00010734
-1.04584e-07
0.000107527
-1.46547e-07
0.000107725
-1.91382e-07
0.000107938
-2.4214e-07
0.000108165
-3.02318e-07
0.000108409
-3.75927e-07
0.000108668
-4.67315e-07
0.000108942
-5.81351e-07
-7.21163e-07
0.000109226
0.000104596
3.83069e-07
0.000104854
1.07177e-06
0.0001052
1.53705e-06
0.000105573
1.76702e-06
0.000105939
1.8273e-06
0.000106285
1.77497e-06
0.000106605
1.65099e-06
0.000106897
1.48853e-06
0.000107165
1.31087e-06
0.000107413
1.13197e-06
0.000107643
9.59975e-07
0.000107858
7.99415e-07
0.000108061
6.52376e-07
0.000108254
5.19419e-07
0.000108438
4.00233e-07
0.000108616
2.94015e-07
0.000108788
1.99688e-07
0.000108956
1.16042e-07
0.000109121
4.18016e-08
0.000109285
-2.43488e-08
0.000109449
-8.37661e-08
0.000109615
-1.37873e-07
0.000109784
-1.88196e-07
0.000109957
-2.36412e-07
0.000110137
-2.844e-07
0.000110325
-3.3429e-07
0.000110522
-3.88504e-07
0.00011073
-4.49782e-07
0.000110949
-5.21158e-07
0.000111179
-6.05919e-07
0.000111419
-7.07428e-07
0.000111667
-8.293e-07
-9.73271e-07
0.000111919
0.000107566
3.03345e-07
0.000107786
8.51863e-07
0.00010809
1.2328e-06
0.000108428
1.42938e-06
0.00010877
1.48528e-06
0.0001091
1.44408e-06
0.000109412
1.33901e-06
0.000109703
1.19759e-06
0.000109974
1.04011e-06
0.000110227
8.79468e-07
0.000110463
7.23505e-07
0.000110686
5.76779e-07
0.000110897
4.41571e-07
0.000111097
3.18667e-07
0.00011129
2.07947e-07
0.000111475
1.08751e-07
0.000111654
2.00987e-08
0.00011183
-5.91659e-08
0.000112002
-1.30299e-07
0.000112172
-1.94623e-07
0.000112342
-2.53516e-07
0.000112512
-3.08428e-07
0.000112685
-3.60901e-07
0.000112861
-4.12604e-07
0.000113042
-4.65356e-07
0.000113229
-5.21157e-07
0.000113423
-5.82198e-07
0.000113624
-6.50852e-07
0.000113832
-7.29632e-07
0.000114047
-8.21128e-07
0.000114268
-9.27817e-07
0.000114491
-1.05226e-06
-1.19514e-06
0.000114713
0.000110625
2.35244e-07
0.000110815
6.61901e-07
0.000111085
9.63011e-07
0.000111393
1.12118e-06
0.000111713
1.16496e-06
0.00011203
1.12703e-06
0.000112335
1.03394e-06
0.000112625
9.08231e-07
0.000112898
7.67153e-07
0.000113155
6.22222e-07
0.000113398
4.80677e-07
0.000113628
3.46851e-07
0.000113846
2.23013e-07
0.000114055
1.10024e-07
0.000114255
7.84893e-09
0.000114448
-8.40867e-08
0.000114635
-1.66715e-07
0.000114817
-2.41156e-07
0.000114995
-3.0865e-07
0.000115171
-3.70514e-07
0.000115345
-4.28123e-07
0.00011552
-4.82919e-07
0.000115695
-5.36411e-07
0.000115873
-5.90201e-07
0.000116054
-6.45991e-07
0.000116238
-7.05588e-07
0.000116427
-7.70901e-07
0.00011662
-8.43909e-07
0.000116817
-9.26612e-07
0.000117017
-1.02096e-06
0.000117218
-1.12867e-06
0.000117417
-1.25145e-06
-1.38925e-06
0.000117611
0.000113775
1.75967e-07
0.000113942
4.95161e-07
0.000114184
7.20976e-07
0.000114467
8.37522e-07
0.000114769
8.63165e-07
0.000115074
8.22017e-07
0.000115373
7.34966e-07
0.000115661
6.20162e-07
0.000115936
4.91952e-07
0.000116198
3.60276e-07
0.000116447
2.31547e-07
0.000116684
1.09673e-07
0.000116911
-3.26788e-09
0.000117127
-1.06475e-07
0.000117335
-1.99987e-07
0.000117535
-2.84378e-07
0.000117729
-3.60558e-07
0.000117918
-4.29637e-07
0.000118102
-4.92844e-07
0.000118283
-5.51481e-07
0.000118462
-6.06904e-07
0.000118639
-6.60511e-07
0.000118817
-7.13745e-07
0.000118994
-7.68099e-07
0.000119174
-8.25115e-07
0.000119354
-8.86375e-07
0.000119537
-9.53484e-07
0.000119721
-1.02803e-06
0.000119906
-1.11154e-06
0.00012009
-1.2054e-06
0.000120273
-1.31071e-06
0.00012045
-1.42849e-06
-1.55819e-06
0.000120618
0.000117017
1.23367e-07
0.000117166
3.46251e-07
0.000117386
5.00877e-07
0.00011765
5.73789e-07
0.000117936
5.76638e-07
0.000118231
5.26945e-07
0.000118525
4.40852e-07
0.000118813
3.32714e-07
0.000119091
2.14151e-07
0.000119357
9.34402e-08
0.000119613
-2.39847e-08
0.000119857
-1.34807e-07
0.000120092
-2.37284e-07
0.000120316
-3.30794e-07
0.000120531
-4.15477e-07
0.000120739
-4.9196e-07
0.00012094
-5.61178e-07
0.000121134
-6.24252e-07
0.000121324
-6.82409e-07
0.000121509
-7.36932e-07
0.000121691
-7.89138e-07
0.000121871
-8.40365e-07
0.000122049
-8.91962e-07
0.000122227
-9.45288e-07
0.000122403
-1.0017e-06
0.000122579
-1.06254e-06
0.000122755
-1.12912e-06
0.00012293
-1.20265e-06
0.000123102
-1.28425e-06
0.000123272
-1.37482e-06
0.000123436
-1.47499e-06
0.000123593
-1.58526e-06
-1.70475e-06
0.000123739
0.000120354
7.575e-08
0.000120489
2.10767e-07
0.000120692
2.9763e-07
0.000120941
3.25602e-07
0.000121215
3.02009e-07
0.000121503
2.39389e-07
0.000121794
1.49955e-07
0.000122082
4.47861e-08
0.000122363
-6.70073e-08
0.000122635
-1.78828e-07
0.000122897
-2.86329e-07
0.000123149
-3.86908e-07
0.000123391
-4.79278e-07
0.000123624
-5.63105e-07
0.000123847
-6.3871e-07
0.000124062
-7.06831e-07
0.000124269
-7.68474e-07
0.00012447
-8.24793e-07
0.000124664
-8.77021e-07
0.000124854
-9.26425e-07
0.000125039
-9.74276e-07
0.00012522
-1.02184e-06
0.000125399
-1.07035e-06
0.000125575
-1.12102e-06
0.000125748
-1.17502e-06
0.000125919
-1.23346e-06
0.000126087
-1.29735e-06
0.000126252
-1.3676e-06
0.000126413
-1.44495e-06
0.000126568
-1.52993e-06
0.000126716
-1.62279e-06
0.000126854
-1.72366e-06
-1.83145e-06
0.000126981
0.000123787
3.17297e-08
0.000123913
8.50176e-08
0.000124104
1.0671e-07
0.000124341
8.87706e-08
0.000124607
3.5811e-08
0.00012489
-4.3349e-08
0.000125179
-1.3973e-07
0.000125469
-2.4508e-07
0.000125755
-3.52582e-07
0.000126033
-4.57299e-07
0.000126303
-5.56042e-07
0.000126563
-6.47021e-07
0.000126813
-7.29504e-07
0.000127054
-8.03538e-07
0.000127285
-8.69698e-07
0.000127507
-9.28894e-07
0.000127721
-9.82237e-07
0.000127927
-1.03094e-06
0.000128126
-1.07626e-06
0.000128319
-1.11944e-06
0.000128506
-1.16172e-06
0.000128689
-1.20427e-06
0.000128867
-1.24822e-06
0.00012904
-1.29464e-06
0.00012921
-1.34449e-06
0.000129375
-1.39868e-06
0.000129536
-1.45795e-06
0.000129691
-1.52295e-06
0.00012984
-1.5941e-06
0.000129982
-1.67166e-06
0.000130115
-1.75559e-06
0.000130237
-1.84576e-06
-1.94101e-06
0.000130346
0.00012732
-9.87515e-09
0.000127439
-3.42023e-08
0.000127622
-7.60236e-08
0.000127852
-1.40811e-07
0.000128113
-2.25597e-07
0.000128394
-3.24332e-07
0.000128685
-4.30693e-07
0.000128979
-5.38886e-07
0.00012927
-6.44192e-07
0.000129556
-7.43296e-07
0.000129835
-8.34213e-07
0.000130104
-9.16037e-07
0.000130363
-9.88683e-07
0.000130612
-1.05266e-06
0.000130851
-1.10886e-06
0.000131081
-1.15842e-06
0.000131301
-1.20259e-06
0.000131513
-1.24269e-06
0.000131716
-1.27999e-06
0.000131913
-1.31574e-06
0.000132102
-1.35114e-06
0.000132285
-1.38728e-06
0.000132462
-1.42517e-06
0.000132633
-1.46574e-06
0.000132799
-1.50979e-06
0.000132958
-1.55801e-06
0.000133111
-1.61095e-06
0.000133257
-1.66898e-06
0.000133395
-1.73234e-06
0.000133524
-1.80102e-06
0.000133644
-1.8748e-06
0.000133751
-1.95336e-06
-2.03552e-06
0.000133846
0.000130955
-5.01219e-08
0.000131071
-1.49794e-07
0.000131249
-2.54476e-07
0.000131476
-3.67224e-07
0.000131736
-4.86016e-07
0.000132019
-6.06882e-07
0.000132314
-7.25715e-07
0.000132614
-8.38888e-07
0.000132913
-9.43633e-07
0.000133208
-1.03822e-06
0.000133496
-1.12192e-06
0.000133774
-1.19476e-06
0.000134043
-1.25739e-06
0.000134301
-1.31084e-06
0.000134549
-1.35639e-06
0.000134786
-1.39545e-06
0.000135013
-1.42946e-06
0.00013523
-1.45984e-06
0.000135438
-1.48792e-06
0.000135637
-1.51497e-06
0.000135828
-1.54213e-06
0.000136011
-1.57044e-06
0.000136187
-1.6008e-06
0.000136355
-1.63401e-06
0.000136516
-1.67071e-06
0.000136669
-1.71143e-06
0.000136815
-1.75651e-06
0.000136952
-1.80617e-06
0.00013708
-1.86043e-06
0.000137198
-1.91914e-06
0.000137306
-1.98196e-06
0.000137401
-2.04845e-06
-2.11748e-06
0.000137483
0.000134695
-9.00038e-08
0.00013481
-2.64546e-07
0.000134988
-4.32555e-07
0.000135215
-5.94783e-07
0.000135479
-7.49723e-07
0.000135767
-8.95008e-07
0.00013607
-1.02842e-06
0.000136379
-1.1483e-06
0.000136689
-1.25371e-06
0.000136996
-1.34451e-06
0.000137295
-1.42123e-06
0.000137585
-1.48493e-06
0.000137865
-1.53705e-06
0.000138133
-1.57923e-06
0.00013839
-1.61318e-06
0.000138635
-1.64065e-06
0.000138869
-1.66329e-06
0.000139092
-1.68265e-06
0.000139304
-1.70017e-06
0.000139506
-1.7171e-06
0.000139699
-1.73459e-06
0.000139882
-1.7536e-06
0.000140056
-1.77495e-06
0.000140221
-1.79931e-06
0.000140378
-1.82721e-06
0.000140525
-1.859e-06
0.000140664
-1.89491e-06
0.000140793
-1.93498e-06
0.000140911
-1.9791e-06
0.000141019
-2.02701e-06
0.000141115
-2.07827e-06
0.000141199
-2.13238e-06
-2.18823e-06
0.00014127
0.000138543
-1.30517e-07
0.000138659
-3.81252e-07
0.000138841
-6.14227e-07
0.000139074
-8.27936e-07
0.000139346
-1.02114e-06
0.000139643
-1.19279e-06
0.000139957
-1.3424e-06
0.000140279
-1.47016e-06
0.000140603
-1.57694e-06
0.000140922
-1.66419e-06
0.000141235
-1.73377e-06
0.000141538
-1.78784e-06
0.000141829
-1.82867e-06
0.000142109
-1.85857e-06
0.000142375
-1.87977e-06
0.000142629
-1.89437e-06
0.00014287
-1.90428e-06
0.000143099
-1.91122e-06
0.000143315
-1.91671e-06
0.00014352
-1.92206e-06
0.000143714
-1.9284e-06
0.000143897
-1.93664e-06
0.000144069
-1.94753e-06
0.000144232
-1.96164e-06
0.000144384
-1.97938e-06
0.000144526
-2.00099e-06
0.000144658
-2.02657e-06
0.000144779
-2.05606e-06
0.000144889
-2.08924e-06
0.000144988
-2.12578e-06
0.000145074
-2.16519e-06
0.000145149
-2.20696e-06
-2.25007e-06
0.000145211
0.000142502
-1.72768e-07
0.000142623
-5.03042e-07
0.000142813
-8.04106e-07
0.000143057
-1.07215e-06
0.000143342
-1.30608e-06
0.000143656
-1.50608e-06
0.000143986
-1.67325e-06
0.000144326
-1.80964e-06
0.000144667
-1.91796e-06
0.000145004
-2.00131e-06
0.000145333
-2.06299e-06
0.000145652
-2.10632e-06
0.000145958
-2.13454e-06
0.00014625
-2.15068e-06
0.000146528
-2.15754e-06
0.000146791
-2.15761e-06
0.00014704
-2.1531e-06
0.000147274
-2.14594e-06
0.000147495
-2.13775e-06
0.000147703
-2.1299e-06
0.000147898
-2.12351e-06
0.000148081
-2.11945e-06
0.000148252
-2.11843e-06
0.000148411
-2.12091e-06
0.000148559
-2.12722e-06
0.000148696
-2.1375e-06
0.000148821
-2.15174e-06
0.000148935
-2.16979e-06
0.000149037
-2.19138e-06
0.000149127
-2.21609e-06
0.000149205
-2.24342e-06
0.000149271
-2.27282e-06
-2.30331e-06
0.000149324
0.000146574
-2.17925e-07
0.000146705
-6.33221e-07
0.000146907
-1.00688e-06
0.000147168
-1.33267e-06
0.000147472
-1.60978e-06
0.000147805
-1.8397e-06
0.000148157
-2.02528e-06
0.000148518
-2.17049e-06
0.00014888
-2.28001e-06
0.000149238
-2.35869e-06
0.000149586
-2.41132e-06
0.000149922
-2.4425e-06
0.000150244
-2.45647e-06
0.00015055
-2.45708e-06
0.000150841
-2.44774e-06
0.000151114
-2.43141e-06
0.000151372
-2.41062e-06
0.000151613
-2.3875e-06
0.00015184
-2.36383e-06
0.000152051
-2.34104e-06
0.000152247
-2.32025e-06
0.00015243
-2.30234e-06
0.0001526
-2.28792e-06
0.000152756
-2.27743e-06
0.0001529
-2.27109e-06
0.000153032
-2.26897e-06
0.000153151
-2.27097e-06
0.000153258
-2.27689e-06
0.000153353
-2.28638e-06
0.000153436
-2.29903e-06
0.000153507
-2.31429e-06
0.000153566
-2.33166e-06
-2.35023e-06
0.000153613
0.000150765
-2.67708e-07
0.000150909
-7.76624e-07
0.000151132
-1.22983e-06
0.000151418
-1.61838e-06
0.00015175
-1.94192e-06
0.000152113
-2.20346e-06
0.000152496
-2.40776e-06
0.000152886
-2.56108e-06
0.000153277
-2.6703e-06
0.00015366
-2.74229e-06
0.000154033
-2.78355e-06
0.00015439
-2.80008e-06
0.000154731
-2.79725e-06
0.000155054
-2.77979e-06
0.000155358
-2.75177e-06
0.000155643
-2.71664e-06
0.00015591
-2.67729e-06
0.000156158
-2.63608e-06
0.000156389
-2.5949e-06
0.000156603
-2.55528e-06
0.000156802
-2.51835e-06
0.000156984
-2.48496e-06
0.000157152
-2.4557e-06
0.000157305
-2.43091e-06
0.000157445
-2.41076e-06
0.000157571
-2.39524e-06
0.000157685
-2.3842e-06
0.000157785
-2.37735e-06
0.000157873
-2.37431e-06
0.000157949
-2.37462e-06
0.000158012
-2.37772e-06
0.000158063
-2.38308e-06
-2.38981e-06
0.000158103
0.000155077
-3.23518e-07
0.000155238
-9.37373e-07
0.000155487
-1.47835e-06
0.000155803
-1.93486e-06
0.000156169
-2.30788e-06
0.000156568
-2.6025e-06
0.000156986
-2.82576e-06
0.000157412
-2.98641e-06
0.000157835
-3.09382e-06
0.00015825
-3.15701e-06
0.000158651
-3.18435e-06
0.000159034
-3.18341e-06
0.000159397
-3.16083e-06
0.00015974
-3.12231e-06
0.000160061
-3.07266e-06
0.00016036
-3.01589e-06
0.000160638
-2.95527e-06
0.000160895
-2.89341e-06
0.000161133
-2.83239e-06
0.000161351
-2.77377e-06
0.000161552
-2.71873e-06
0.000161735
-2.6681e-06
0.000161902
-2.6224e-06
0.000162053
-2.58194e-06
0.000162189
-2.5468e-06
0.00016231
-2.51691e-06
0.000162418
-2.49204e-06
0.000162513
-2.47187e-06
0.000162594
-2.45598e-06
0.000162664
-2.44388e-06
0.000162721
-2.43501e-06
0.000162767
-2.42888e-06
-2.42463e-06
0.000162802
0.000159517
-3.89595e-07
0.000159706
-1.12645e-06
0.000159996
-1.76843e-06
0.000160362
-2.30068e-06
0.00016078
-2.72654e-06
0.000161232
-3.05419e-06
0.0001617
-3.29398e-06
0.000162172
-3.4582e-06
0.000162638
-3.55939e-06
0.00016309
-3.60917e-06
0.000163523
-3.61804e-06
0.000163935
-3.59526e-06
0.000164323
-3.54881e-06
0.000164686
-3.48539e-06
0.000165024
-3.41058e-06
0.000165337
-3.32892e-06
0.000165626
-3.24406e-06
0.000165892
-3.15886e-06
0.000166135
-3.07553e-06
0.000166357
-2.9957e-06
0.000166558
-2.92057e-06
0.000166741
-2.85093e-06
0.000166906
-2.78726e-06
0.000167054
-2.72979e-06
0.000167186
-2.67852e-06
0.000167302
-2.63332e-06
0.000167404
-2.5939e-06
0.000167492
-2.55986e-06
0.000167567
-2.53074e-06
0.000167629
-2.50602e-06
0.000167679
-2.48508e-06
0.000167717
-2.46738e-06
-2.45204e-06
0.000167745
0.000164082
-4.65693e-07
0.000164302
-1.34589e-06
0.000164635
-2.10207e-06
0.000165053
-2.71823e-06
0.000165529
-3.20222e-06
0.00016604
-3.56557e-06
0.000166568
-3.82198e-06
0.000167097
-3.98777e-06
0.000167617
-4.07916e-06
0.000168119
-4.11089e-06
0.000168597
-4.09604e-06
0.000169048
-4.04595e-06
0.000169469
-3.9702e-06
0.00016986
-3.8767e-06
0.000170222
-3.77189e-06
0.000170554
-3.66092e-06
0.000170857
-3.54783e-06
0.000171134
-3.43573e-06
0.000171386
-3.32695e-06
0.000171613
-3.22317e-06
0.000171818
-3.12556e-06
0.000172002
-3.03485e-06
0.000172166
-2.95145e-06
0.000172312
-2.87548e-06
0.00017244
-2.80687e-06
0.000172552
-2.74539e-06
0.000172649
-2.69067e-06
0.000172732
-2.64226e-06
0.0001728
-2.59965e-06
0.000172857
-2.56229e-06
0.000172901
-2.52956e-06
0.000172935
-2.50093e-06
-2.47552e-06
0.000172958
0.000168795
-5.69126e-07
0.000169081
-1.63155e-06
0.000169502
-2.5233e-06
0.000170013
-3.22939e-06
0.00017058
-3.76877e-06
0.000171175
-4.16047e-06
0.000171777
-4.42453e-06
0.000172372
-4.58301e-06
0.00017295
-4.65639e-06
0.000173501
-4.66258e-06
0.000174023
-4.61724e-06
0.00017451
-4.5337e-06
0.000174963
-4.42304e-06
0.000175381
-4.29433e-06
0.000175764
-4.15481e-06
0.000176113
-4.01023e-06
0.00017643
-3.86499e-06
0.000176717
-3.72245e-06
0.000176975
-3.58504e-06
0.000177206
-3.45447e-06
0.000177413
-3.33187e-06
0.000177596
-3.21789e-06
0.000177757
-3.11285e-06
0.000177898
-3.01676e-06
0.000178021
-2.92943e-06
0.000178126
-2.85052e-06
0.000178215
-2.77957e-06
0.000178289
-2.71607e-06
0.000178349
-2.65942e-06
0.000178395
-2.60901e-06
0.00017843
-2.56416e-06
0.000178453
-2.52426e-06
-2.48835e-06
0.000178466
0.000173623
-6.80972e-07
0.000173955
-1.96333e-06
0.000174448
-3.01602e-06
0.000175051
-3.83283e-06
0.000175725
-4.44233e-06
0.000176432
-4.86784e-06
0.000177145
-5.13702e-06
0.000177842
-5.2805e-06
0.000178511
-5.3252e-06
0.000179142
-5.29383e-06
0.000179731
-5.20574e-06
0.000180274
-5.07702e-06
0.000180772
-4.92067e-06
0.000181224
-4.74708e-06
0.000181634
-4.56438e-06
0.000182003
-4.37887e-06
0.000182333
-4.19524e-06
0.000182627
-4.01697e-06
0.000182889
-3.84649e-06
0.00018312
-3.68542e-06
0.000183323
-3.53475e-06
0.0001835
-3.39498e-06
0.000183653
-3.26623e-06
0.000183785
-3.14834e-06
0.000183896
-3.04095e-06
0.000183989
-2.94358e-06
0.000184065
-2.85564e-06
0.000184126
-2.77651e-06
0.000184172
-2.70556e-06
0.000184205
-2.64213e-06
0.000184226
-2.58556e-06
0.000184237
-2.53527e-06
-2.49021e-06
0.000184239
0.000178683
-8.95034e-07
0.000179192
-2.47246e-06
0.000179866
-3.69019e-06
0.000180626
-4.59249e-06
0.000181429
-5.24572e-06
0.000182244
-5.68252e-06
0.000183046
-5.93901e-06
0.000183818
-6.05334e-06
0.00018455
-6.05724e-06
0.000185234
-5.97742e-06
0.000185865
-5.83674e-06
0.000186442
-5.65395e-06
0.000186965
-5.44399e-06
0.000187437
-5.21862e-06
0.000187859
-4.98688e-06
0.000188236
-4.75556e-06
0.00018857
-4.52961e-06
0.000188866
-4.31253e-06
0.000189126
-4.10667e-06
0.000189354
-3.91346e-06
0.000189553
-3.73365e-06
0.000189726
-3.56748e-06
0.000189874
-3.4148e-06
0.000190001
-3.2752e-06
0.000190108
-3.14807e-06
0.000190197
-3.03273e-06
0.00019027
-2.92843e-06
0.000190328
-2.8344e-06
0.000190372
-2.74992e-06
0.000190405
-2.6743e-06
0.000190426
-2.6069e-06
0.000190438
-2.54711e-06
-2.49386e-06
0.000190441
0.000183746
-1.07372e-06
0.000184339
-3.06492e-06
0.000185173
-4.52438e-06
0.000186145
-5.56499e-06
0.000187174
-6.27443e-06
0.000188195
-6.70399e-06
0.000189176
-6.9194e-06
0.0001901
-6.97774e-06
0.000190963
-6.91962e-06
0.000191762
-6.77701e-06
0.000192501
-6.57565e-06
0.000193183
-6.33548e-06
0.00019381
-6.07182e-06
0.000194388
-5.7964e-06
0.000194919
-5.51807e-06
0.000195407
-5.24339e-06
0.000195855
-4.97712e-06
0.000196265
-4.72256e-06
0.00019664
-4.4819e-06
0.000196983
-4.25643e-06
0.000197296
-4.04676e-06
0.000197582
-3.85297e-06
0.000197841
-3.67473e-06
0.000198078
-3.51149e-06
0.000198292
-3.36249e-06
0.000198486
-3.22687e-06
0.000198662
-3.10378e-06
0.00019882
-2.99235e-06
0.000198962
-2.8919e-06
0.000199089
-2.80177e-06
0.000199204
-2.72172e-06
0.000199308
-2.65125e-06
-2.5905e-06
0.000199405
0.000189418
-1.67972e-06
0.000190407
-4.0539e-06
0.00019149
-5.60762e-06
0.000192651
-6.72572e-06
0.000193896
-7.51907e-06
0.000195203
-8.01127e-06
0.000196552
-8.26873e-06
0.00019792
-8.34554e-06
0.00019928
-8.27988e-06
0.000200609