/*--------------------------------*- C++ -*----------------------------------*\
| =========                 |                                                 |
| \\      /  F ield         | OpenFOAM: The Open Source CFD Toolbox           |
|  \\    /   O peration     | Version:  2.1.1                                 |
|   \\  /    A nd           | Web:      www.OpenFOAM.org                      |
|    \\/     M anipulation  |                                                 |
\*---------------------------------------------------------------------------*/
FoamFile
{
    version     2.0;
    format      ascii;
    class       volVectorField;
    location    "0.06";
    object      U;
}
// * * * * * * * * * * * * * * * * * * * * * * * * * * * * * * * * * * * * * //

dimensions      [0 1 -1 0 0 0 0];

internalField   nonuniform List<vector> 
6820
(
(6.37598 0.503755 0)
(4.42418 0.286884 0)
(2.97319 0.0202313 0)
(2.23367 -0.0618782 0)
(1.96771 -0.0599418 0)
(1.84046 -0.0345085 0)
(1.76503 -0.0150887 0)
(1.71231 -0.00470489 0)
(1.66824 9.3894e-06 0)
(1.62974 0.00153582 0)
(1.59621 0.00154288 0)
(1.56713 0.000967451 0)
(1.54196 0.000243849 0)
(1.52012 -0.000436917 0)
(1.50102 -0.000998969 0)
(1.48413 -0.00142274 0)
(1.469 -0.00171361 0)
(1.45522 -0.00188484 0)
(1.44239 -0.00194929 0)
(1.43016 -0.00191603 0)
(1.41817 -0.00178903 0)
(1.40605 -0.00156655 0)
(1.39339 -0.00124051 0)
(1.37971 -0.000795379 0)
(1.36448 -0.000207419 0)
(1.34705 0.000561079 0)
(1.32659 0.00155382 0)
(1.30216 0.00287253 0)
(1.27224 0.00452758 0)
(1.23585 0.00708265 0)
(1.18774 0.00945518 0)
(1.13339 0.0190686 0)
(1.03212 0.0025709 0)
(8.7202 0.959664 0)
(8.76462 1.01202 0)
(7.96837 0.679137 0)
(7.05439 0.394053 0)
(6.35279 0.202636 0)
(5.84576 0.103583 0)
(5.48311 0.0581594 0)
(5.22094 0.037727 0)
(5.02428 0.0286083 0)
(4.87088 0.0241706 0)
(4.74731 0.0215687 0)
(4.64515 0.019756 0)
(4.55896 0.0183462 0)
(4.48508 0.0171833 0)
(4.42094 0.0161982 0)
(4.3646 0.0153642 0)
(4.31461 0.0146782 0)
(4.26978 0.0141515 0)
(4.22913 0.0138054 0)
(4.1918 0.0136711 0)
(4.15701 0.0137909 0)
(4.12401 0.0142199 0)
(4.09208 0.0150304 0)
(4.06044 0.0163166 0)
(4.02824 0.0182021 0)
(3.99453 0.0208539 0)
(3.9582 0.0244882 0)
(3.91786 0.0294511 0)
(3.87183 0.0360959 0)
(3.81779 0.0455036 0)
(3.75283 0.0578617 0)
(3.67207 0.0783159 0)
(3.57309 0.108744 0)
(8.58611 0.583523 0)
(9.33122 0.762468 0)
(9.61414 0.660374 0)
(9.50372 0.526866 0)
(9.23693 0.397416 0)
(8.92371 0.299649 0)
(8.61693 0.230927 0)
(8.33977 0.181655 0)
(8.09647 0.145864 0)
(7.88474 0.119384 0)
(7.70083 0.0993103 0)
(7.54085 0.0837918 0)
(7.40122 0.0716276 0)
(7.27887 0.0620067 0)
(7.17114 0.0543525 0)
(7.07582 0.0482459 0)
(6.991 0.0433867 0)
(6.91505 0.039567 0)
(6.84656 0.0366513 0)
(6.78429 0.0345623 0)
(6.72712 0.0332727 0)
(6.67402 0.0328017 0)
(6.624 0.0332156 0)
(6.57611 0.0346323 0)
(6.52934 0.0372314 0)
(6.48263 0.041272 0)
(6.43482 0.0471183 0)
(6.38456 0.0553015 0)
(6.33024 0.0665519 0)
(6.26991 0.0821502 0)
(6.20132 0.103645 0)
(6.12107 0.135004 0)
(6.02902 0.181814 0)
(8.44092 0.379746 0)
(8.94583 0.58419 0)
(9.35817 0.554847 0)
(9.58574 0.4875 0)
(9.69964 0.407733 0)
(9.7353 0.338774 0)
(9.71925 0.28649 0)
(9.6738 0.246562 0)
(9.6118 0.215362 0)
(9.54052 0.190317 0)
(9.46464 0.16959 0)
(9.38725 0.152071 0)
(9.31032 0.137059 0)
(9.23529 0.124084 0)
(9.16305 0.112848 0)
(9.09405 0.103139 0)
(9.02851 0.0948034 0)
(8.96644 0.0877262 0)
(8.90771 0.0818342 0)
(8.8521 0.0770941 0)
(8.79932 0.0735133 0)
(8.74897 0.071145 0)
(8.70063 0.0700936 0)
(8.6538 0.0705256 0)
(8.6079 0.0726845 0)
(8.56228 0.0769149 0)
(8.51619 0.0836947 0)
(8.46876 0.0936997 0)
(8.41901 0.10786 0)
(8.36579 0.127603 0)
(8.30822 0.154858 0)
(8.24485 0.192908 0)
(8.17902 0.246917 0)
(8.40213 0.280123 0)
(8.71889 0.480844 0)
(8.99866 0.462203 0)
(9.17399 0.404866 0)
(9.29833 0.34304 0)
(9.39161 0.290843 0)
(9.46053 0.252109 0)
(9.51322 0.222852 0)
(9.55449 0.199771 0)
(9.58669 0.180979 0)
(9.61152 0.16523 0)
(9.63034 0.151754 0)
(9.64422 0.140087 0)
(9.65376 0.129917 0)
(9.65962 0.121021 0)
(9.66242 0.113246 0)
(9.66268 0.106493 0)
(9.66085 0.10071 0)
(9.65727 0.0958846 0)
(9.65224 0.0920412 0)
(9.64596 0.0892457 0)
(9.63858 0.0876083 0)
(9.63021 0.0872916 0)
(9.62087 0.0885221 0)
(9.61056 0.0916072 0)
(9.59924 0.0969587 0)
(9.58684 0.105128 0)
(9.57326 0.116853 0)
(9.55849 0.133133 0)
(9.54259 0.155306 0)
(9.52616 0.185213 0)
(9.51017 0.225134 0)
(9.4988 0.278065 0)
(8.37747 0.202243 0)
(8.60129 0.383745 0)
(8.81562 0.390959 0)
(8.94648 0.356742 0)
(9.03215 0.312579 0)
(9.09472 0.269304 0)
(9.14143 0.233711 0)
(9.17955 0.20549 0)
(9.2133 0.182862 0)
(9.24406 0.164505 0)
(9.27245 0.149341 0)
(9.2988 0.136563 0)
(9.32332 0.125656 0)
(9.34629 0.11629 0)
(9.36781 0.108208 0)
(9.38797 0.101233 0)
(9.40685 0.0952584 0)
(9.42453 0.0902253 0)
(9.4411 0.0861193 0)
(9.45664 0.0829656 0)
(9.47125 0.0808301 0)
(9.48503 0.0798227 0)
(9.49812 0.0801043 0)
(9.51065 0.0818963 0)
(9.52282 0.0854951 0)
(9.53485 0.0912905 0)
(9.54707 0.0997918 0)
(9.55996 0.111656 0)
(9.57418 0.12773 0)
(9.59081 0.149055 0)
(9.61142 0.176929 0)
(9.63887 0.212597 0)
(9.67652 0.257015 0)
(8.36127 0.148878 0)
(8.52266 0.311558 0)
(8.69729 0.337326 0)
(8.81193 0.317952 0)
(8.88639 0.284923 0)
(8.93931 0.248978 0)
(8.97687 0.217622 0)
(9.00526 0.192071 0)
(9.02891 0.171176 0)
(9.04972 0.153911 0)
(9.06866 0.139454 0)
(9.08632 0.127165 0)
(9.10302 0.116602 0)
(9.11894 0.107461 0)
(9.1342 0.0995366 0)
(9.14888 0.0926899 0)
(9.16304 0.0868283 0)
(9.1767 0.0818986 0)
(9.18993 0.0778825 0)
(9.20275 0.0747967 0)
(9.21523 0.0726936 0)
(9.22744 0.0716646 0)
(9.23948 0.0718441 0)
(9.25149 0.0734168 0)
(9.26367 0.0766258 0)
(9.27629 0.0817827 0)
(9.28977 0.0892794 0)
(9.30467 0.0995953 0)
(9.32182 0.113299 0)
(9.34251 0.131013 0)
(9.3684 0.153332 0)
(9.40246 0.180623 0)
(9.4473 0.212265 0)
(8.35115 0.111446 0)
(8.46735 0.251752 0)
(8.60802 0.286747 0)
(8.70962 0.27872 0)
(8.7793 0.256583 0)
(8.83079 0.229378 0)
(8.86842 0.203553 0)
(8.89674 0.181229 0)
(8.91971 0.162156 0)
(8.93933 0.145876 0)
(8.95667 0.131952 0)
(8.97243 0.119968 0)
(8.98705 0.10959 0)
(9.00078 0.10058 0)
(9.01381 0.0927621 0)
(9.02626 0.0860054 0)
(9.03821 0.0802182 0)
(9.04976 0.0753463 0)
(9.06095 0.071369 0)
(9.07187 0.0682979 0)
(9.08257 0.0661765 0)
(9.09315 0.0650813 0)
(9.10372 0.0651246 0)
(9.11443 0.0664565 0)
(9.12549 0.0692692 0)
(9.13719 0.0737981 0)
(9.14993 0.0803206 0)
(9.16427 0.0891472 0)
(9.18098 0.100592 0)
(9.20123 0.114918 0)
(9.2264 0.132196 0)
(9.25883 0.152152 0)
(9.30023 0.173503 0)
(8.34486 0.0847711 0)
(8.42932 0.203868 0)
(8.54202 0.243951 0)
(8.63063 0.244819 0)
(8.69447 0.230857 0)
(8.7434 0.210108 0)
(8.78066 0.188437 0)
(8.80948 0.168701 0)
(8.83311 0.151349 0)
(8.85338 0.136254 0)
(8.87127 0.123177 0)
(8.88745 0.111822 0)
(8.90239 0.101924 0)
(8.91636 0.0932814 0)
(8.92955 0.0857418 0)
(8.94211 0.0791921 0)
(8.95416 0.073555 0)
(8.96579 0.0687845 0)
(8.97708 0.0648627 0)
(8.98812 0.0617978 0)
(8.999 0.0596239 0)
(9.00983 0.058401 0)
(9.02075 0.0582158 0)
(9.03193 0.0591809 0)
(9.0436 0.061434 0)
(9.05608 0.0651332 0)
(9.06977 0.0704459 0)
(9.08523 0.0775289 0)
(9.10318 0.0864846 0)
(9.12464 0.0972999 0)
(9.15074 0.109701 0)
(9.18323 0.123044 0)
(9.22313 0.135882 0)
(8.34093 0.0655263 0)
(8.40302 0.165533 0)
(8.49312 0.206842 0)
(8.56968 0.213577 0)
(8.62765 0.205634 0)
(8.67362 0.190343 0)
(8.7099 0.172777 0)
(8.73868 0.155883 0)
(8.76253 0.140484 0)
(8.7831 0.126702 0)
(8.80129 0.114498 0)
(8.81777 0.103729 0)
(8.83297 0.0942324 0)
(8.84719 0.0858673 0)
(8.86063 0.0785216 0)
(8.87346 0.072107 0)
(8.88578 0.0665584 0)
(8.8977 0.0618339 0)
(8.90932 0.0579134 0)
(8.92074 0.0547976 0)
(8.93205 0.0525076 0)
(8.94338 0.0510837 0)
(8.95489 0.0505841 0)
(8.96677 0.0510817 0)
(8.97926 0.0526592 0)
(8.99268 0.0553995 0)
(9.00743 0.0593692 0)
(9.02404 0.0645927 0)
(9.04314 0.0710048 0)
(9.06558 0.0783939 0)
(9.09224 0.0862818 0)
(9.12438 0.0938419 0)
(9.16251 0.0996944 0)
(8.33845 0.0513694 0)
(8.38467 0.134714 0)
(8.45676 0.174854 0)
(8.52258 0.185539 0)
(8.57496 0.18227 0)
(8.61784 0.171465 0)
(8.65279 0.157398 0)
(8.6812 0.142932 0)
(8.70507 0.1292 0)
(8.72581 0.116571 0)
(8.74424 0.105173 0)
(8.76098 0.0949862 0)
(8.77643 0.0859211 0)
(8.7909 0.0778814 0)
(8.80459 0.0707801 0)
(8.81766 0.0645433 0)
(8.83024 0.0591134 0)
(8.84243 0.0544504 0)
(8.85435 0.0505311 0)
(8.8661 0.0473485 0)
(8.87779 0.0449101 0)
(8.88956 0.0432356 0)
(8.90158 0.0423542 0)
(8.91403 0.0422995 0)
(8.92716 0.0431017 0)
(8.94128 0.0447754 0)
(8.95675 0.0473009 0)
(8.97405 0.050597 0)
(8.99371 0.0544781 0)
(9.0164 0.058607 0)
(9.04274 0.0624076 0)
(9.07358 0.0650081 0)
(9.10909 0.0651991 0)
(8.33686 0.0407459 0)
(8.37176 0.109877 0)
(8.42959 0.147349 0)
(8.48593 0.160282 0)
(8.533 0.160296 0)
(8.57277 0.152922 0)
(8.60619 0.141787 0)
(8.63408 0.129541 0)
(8.65788 0.117455 0)
(8.67875 0.10604 0)
(8.69742 0.0955265 0)
(8.71441 0.0859815 0)
(8.73014 0.0773831 0)
(8.74488 0.0696799 0)
(8.75884 0.0628153 0)
(8.77217 0.0567355 0)
(8.78502 0.0513944 0)
(8.7975 0.0467563 0)
(8.80973 0.0427962 0)
(8.8218 0.0394992 0)
(8.83386 0.0368589 0)
(8.84603 0.0348746 0)
(8.85848 0.0335477 0)
(8.8714 0.0328753 0)
(8.88502 0.0328411 0)
(8.89963 0.0334024 0)
(8.91555 0.0344715 0)
(8.93317 0.035891 0)
(8.95292 0.0373992 0)
(8.97529 0.0385936 0)
(9.0007 0.0388776 0)
(9.02967 0.0374156 0)
(9.06213 0.0332053 0)
(8.33583 0.0326054 0)
(8.36258 0.0897289 0)
(8.40918 0.123679 0)
(8.4573 0.137568 0)
(8.49944 0.139831 0)
(8.53618 0.135104 0)
(8.56794 0.126421 0)
(8.59511 0.116125 0)
(8.61869 0.105514 0)
(8.63958 0.0951967 0)
(8.65842 0.0854875 0)
(8.67566 0.0765323 0)
(8.69165 0.0683689 0)
(8.70667 0.0609859 0)
(8.72091 0.0543523 0)
(8.73454 0.0484294 0)
(8.74768 0.0431784 0)
(8.76046 0.0385646 0)
(8.77299 0.0345587 0)
(8.78539 0.0311366 0)
(8.79778 0.0282775 0)
(8.8103 0.0259613 0)
(8.8231 0.0241638 0)
(8.83638 0.0228497 0)
(8.85034 0.021964 0)
(8.86523 0.0214192 0)
(8.88133 0.0210786 0)
(8.89895 0.0207351 0)
(8.9184 0.0200877 0)
(8.94003 0.0187161 0)
(8.96409 0.0160488 0)
(8.99083 0.0113385 0)
(9.02006 0.00379211 0)
(8.33513 0.0262345 0)
(8.35596 0.0732554 0)
(8.39376 0.103289 0)
(8.43487 0.11716 0)
(8.47249 0.120796 0)
(8.50631 0.117974 0)
(8.53634 0.111214 0)
(8.56266 0.102551 0)
(8.58589 0.0932394 0)
(8.60674 0.0839383 0)
(8.62568 0.0750127 0)
(8.64312 0.0666557 0)
(8.65937 0.0589465 0)
(8.67465 0.0519034 0)
(8.68917 0.0455155 0)
(8.70308 0.0397571 0)
(8.7165 0.0345964 0)
(8.72957 0.03 0)
(8.74238 0.0259356 0)
(8.75506 0.022371 0)
(8.76773 0.0192731 0)
(8.78053 0.0166048 0)
(8.7936 0.0143202 0)
(8.80711 0.012358 0)
(8.82125 0.0106332 0)
(8.83622 0.00902623 0)
(8.85226 0.00736884 0)
(8.86959 0.00543167 0)
(8.88843 0.00290094 0)
(8.909 -0.000629541 0)
(8.93142 -0.00567378 0)
(8.95577 -0.0128713 0)
(8.98178 -0.0228265 0)
(8.33465 0.0211448 0)
(8.35114 0.0596535 0)
(8.38205 0.0856658 0)
(8.41723 0.0988025 0)
(8.4508 0.103109 0)
(8.48187 0.101582 0)
(8.51017 0.0962997 0)
(8.53555 0.0889872 0)
(8.55835 0.0808047 0)
(8.57905 0.0724148 0)
(8.59804 0.0642065 0)
(8.61563 0.0564041 0)
(8.63209 0.0491185 0)
(8.64762 0.0423933 0)
(8.66239 0.0362353 0)
(8.67656 0.0306298 0)
(8.69025 0.0255504 0)
(8.70356 0.0209643 0)
(8.71663 0.0168352 0)
(8.72955 0.0131233 0)
(8.74245 0.00978394 0)
(8.75545 0.00676526 0)
(8.76869 0.0040035 0)
(8.78231 0.00141744 0)
(8.79647 -0.00109894 0)
(8.81135 -0.00368532 0)
(8.82711 -0.00652528 0)
(8.84393 -0.00985415 0)
(8.86193 -0.0139749 0)
(8.88122 -0.0192592 0)
(8.90184 -0.0261475 0)
(8.92375 -0.0351701 0)
(8.94664 -0.04677 0)
(8.33432 0.016997 0)
(8.34758 0.0482942 0)
(8.37312 0.0703577 0)
(8.40335 0.082257 0)
(8.43331 0.086672 0)
(8.46185 0.085921 0)
(8.48847 0.0816962 0)
(8.51287 0.0754391 0)
(8.53516 0.0681885 0)
(8.55566 0.0605841 0)
(8.57464 0.0530193 0)
(8.59233 0.0457333 0)
(8.60896 0.038856 0)
(8.62471 0.0324471 0)
(8.63971 0.0265246 0)
(8.65412 0.0210811 0)
(8.66804 0.016093 0)
(8.68158 0.0115272 0)
(8.69486 0.00734342 0)
(8.70797 0.00349506 0)
(8.72103 -7.16864e-05 0)
(8.73415 -0.00342025 0)
(8.74745 -0.00662734 0)
(8.76106 -0.00978768 0)
(8.77512 -0.0130198 0)
(8.78974 -0.0164723 0)
(8.80505 -0.0203307 0)
(8.82116 -0.024825 0)
(8.83815 -0.0302309 0)
(8.85605 -0.0368738 0)
(8.8748 -0.0451198 0)
(8.89432 -0.0553911 0)
(8.9143 -0.0679949 0)
(8.33407 0.0135512 0)
(8.34493 0.0386861 0)
(8.36627 0.0569674 0)
(8.3924 0.067287 0)
(8.41923 0.0713667 0)
(8.44547 0.0709591 0)
(8.47051 0.0674257 0)
(8.49392 0.0619554 0)
(8.51567 0.0554539 0)
(8.53592 0.0485144 0)
(8.55483 0.0415163 0)
(8.5726 0.034699 0)
(8.58936 0.0282003 0)
(8.60529 0.0220891 0)
(8.6205 0.0163906 0)
(8.63511 0.0111023 0)
(8.64923 0.00620239 0)
(8.66296 0.0016567 0)
(8.6764 -0.00257839 0)
(8.68965 -0.00655492 0)
(8.70281 -0.0103339 0)
(8.71597 -0.0139871 0)
(8.72925 -0.0175998 0)
(8.74275 -0.0212745 0)
(8.75657 -0.0251347 0)
(8.7708 -0.0293299 0)
(8.78554 -0.0340386 0)
(8.80083 -0.0394719 0)
(8.8167 -0.0458734 0)
(8.83313 -0.053517 0)
(8.85005 -0.0626957 0)
(8.86729 -0.0737358 0)
(8.88458 -0.0868378 0)
(8.33389 0.0106344 0)
(8.34293 0.0304438 0)
(8.361 0.0451505 0)
(8.38378 0.0536678 0)
(8.4079 0.0570667 0)
(8.4321 0.0566444 0)
(8.45568 0.0534813 0)
(8.47815 0.0485457 0)
(8.49935 0.0426097 0)
(8.51931 0.0362061 0)
(8.53814 0.0296884 0)
(8.55593 0.0232858 0)
(8.57281 0.0171356 0)
(8.58889 0.0113094 0)
(8.60427 0.00583508 0)
(8.61906 0.000710808 0)
(8.63335 -0.00408494 0)
(8.64722 -0.00858826 0)
(8.66078 -0.0128463 0)
(8.67411 -0.0169157 0)
(8.6873 -0.0208629 0)
(8.70044 -0.0247649 0)
(8.71361 -0.0287119 0)
(8.72689 -0.0328089 0)
(8.74038 -0.0371788 0)
(8.75412 -0.0419647 0)
(8.76817 -0.0473315 0)
(8.78256 -0.0534663 0)
(8.79726 -0.0605763 0)
(8.81224 -0.0688847 0)
(8.82737 -0.0786181 0)
(8.8425 -0.0900203 0)
(8.85739 -0.103208 0)
(8.33375 0.00811875 0)
(8.34142 0.0232641 0)
(8.35694 0.0346095 0)
(8.377 0.0411863 0)
(8.39884 0.0436373 0)
(8.42125 0.042905 0)
(8.44353 0.0398351 0)
(8.46512 0.0352065 0)
(8.48579 0.0296642 0)
(8.50547 0.0236731 0)
(8.52419 0.0175508 0)
(8.542 0.0115073 0)
(8.55896 0.00567076 0)
(8.57517 0.000109143 0)
(8.5907 -0.0051514 0)
(8.60564 -0.0101143 0)
(8.62006 -0.0148029 0)
(8.63405 -0.0192556 0)
(8.64769 -0.0235225 0)
(8.66105 -0.0276637 0)
(8.67421 -0.0317487 0)
(8.68725 -0.0358572 0)
(8.70024 -0.0400801 0)
(8.71324 -0.0445208 0)
(8.72631 -0.0492968 0)
(8.73949 -0.05454 0)
(8.7528 -0.0603973 0)
(8.76625 -0.0670291 0)
(8.77978 -0.0746057 0)
(8.79334 -0.0833029 0)
(8.8068 -0.0932892 0)
(8.82001 -0.10474 0)
(8.83275 -0.117709 0)
(8.33365 0.00590766 0)
(8.34027 0.0169053 0)
(8.35382 0.0250874 0)
(8.3717 0.0296416 0)
(8.39164 0.0309391 0)
(8.41254 0.0296547 0)
(8.43368 0.0264414 0)
(8.45449 0.0219176 0)
(8.47467 0.0166113 0)
(8.49409 0.0109169 0)
(8.5127 0.00511004 0)
(8.53051 -0.000624738 0)
(8.54755 -0.00617402 0)
(8.56386 -0.0114785 0)
(8.57952 -0.0165177 0)
(8.59458 -0.0212988 0)
(8.6091 -0.0258488 0)
(8.62317 -0.0302099 0)
(8.63684 -0.0344351 0)
(8.65018 -0.0385872 0)
(8.66327 -0.0427376 0)
(8.67615 -0.0469665 0)
(8.6889 -0.0513633 0)
(8.70155 -0.0560269 0)
(8.71414 -0.0610661 0)
(8.72671 -0.0665994 0)
(8.73924 -0.0727537 0)
(8.75173 -0.0796625 0)
(8.76412 -0.0874613 0)
(8.77633 -0.096284 0)
(8.78825 -0.10625 0)
(8.79973 -0.11748 0)
(8.81059 -0.129983 0)
(8.33357 0.00392586 0)
(8.33941 0.0111719 0)
(8.35145 0.0163605 0)
(8.36761 0.0188435 0)
(8.38601 0.018828 0)
(8.40565 0.0167919 0)
(8.42583 0.0132322 0)
(8.44598 0.00863247 0)
(8.46575 0.00341499 0)
(8.48495 -0.00209644 0)
(8.50348 -0.00767194 0)
(8.5213 -0.0131576 0)
(8.53841 -0.0184601 0)
(8.55483 -0.0235332 0)
(8.5706 -0.0283654 0)
(8.58577 -0.0329707 0)
(8.60038 -0.037381 0)
(8.61449 -0.041642 0)
(8.62816 -0.0458096 0)
(8.64145 -0.0499482 0)
(8.65442 -0.0541296 0)
(8.6671 -0.0584324 0)
(8.67956 -0.0629419 0)
(8.69182 -0.0677503 0)
(8.7039 -0.0729553 0)
(8.71583 -0.0786603 0)
(8.72758 -0.0849719 0)
(8.73913 -0.0919976 0)
(8.75043 -0.0998415 0)
(8.76139 -0.108601 0)
(8.77192 -0.118357 0)
(8.78186 -0.129185 0)
(8.7911 -0.141062 0)
(8.33352 0.00211285 0)
(8.33876 0.00590226 0)
(8.34967 0.00823208 0)
(8.36451 0.00861205 0)
(8.3817 0.00715767 0)
(8.40035 0.00420611 0)
(8.41977 0.000131202 0)
(8.43939 -0.00469553 0)
(8.45883 -0.00994508 0)
(8.47787 -0.0153612 0)
(8.49635 -0.0207614 0)
(8.5142 -0.0260257 0)
(8.53139 -0.0310846 0)
(8.54792 -0.0359091 0)
(8.56379 -0.0405001 0)
(8.57903 -0.0448807 0)
(8.5937 -0.0490897 0)
(8.60783 -0.0531779 0)
(8.62147 -0.0572047 0)
(8.63467 -0.0612361 0)
(8.64747 -0.0653439 0)
(8.65992 -0.0696044 0)
(8.67204 -0.0740981 0)
(8.68388 -0.0789092 0)
(8.69543 -0.0841244 0)
(8.7067 -0.0898318 0)
(8.71768 -0.0961186 0)
(8.72833 -0.103069 0)
(8.7386 -0.110761 0)
(8.74842 -0.119261 0)
(8.75769 -0.128619 0)
(8.7663 -0.138878 0)
(8.77415 -0.149994 0)
(8.33347 0.000418028 0)
(8.3383 0.000958102 0)
(8.34838 0.00052402 0)
(8.36225 -0.0012283 0)
(8.37855 -0.00422817 0)
(8.39646 -0.00823677 0)
(8.41533 -0.0129779 0)
(8.43458 -0.0181745 0)
(8.45382 -0.0235808 0)
(8.47278 -0.0290056 0)
(8.49128 -0.0343149 0)
(8.50921 -0.0394249 0)
(8.52652 -0.044293 0)
(8.54316 -0.0489096 0)
(8.55914 -0.05329 0)
(8.57448 -0.0574676 0)
(8.58921 -0.0614889 0)
(8.60335 -0.0654098 0)
(8.61694 -0.0692925 0)
(8.63003 -0.0732044 0)
(8.64265 -0.0772157 0)
(8.65484 -0.0813997 0)
(8.66662 -0.0858309 0)
(8.67801 -0.0905849 0)
(8.68902 -0.0957367 0)
(8.69965 -0.10136 0)
(8.70989 -0.107524 0)
(8.71969 -0.114293 0)
(8.72901 -0.121721 0)
(8.73779 -0.129852 0)
(8.74595 -0.13871 0)
(8.7534 -0.148315 0)
(8.76006 -0.158609 0)
(8.33345 -0.00120211 0)
(8.33798 -0.00378227 0)
(8.34751 -0.0069277 0)
(8.36073 -0.0108471 0)
(8.37642 -0.0154827 0)
(8.39385 -0.0206608 0)
(8.41238 -0.0261796 0)
(8.43142 -0.0318399 0)
(8.45058 -0.0374687 0)
(8.46956 -0.0429359 0)
(8.48814 -0.0481564 0)
(8.50619 -0.0530852 0)
(8.52363 -0.0577104 0)
(8.54041 -0.0620461 0)
(8.55651 -0.0661257 0)
(8.57193 -0.0699966 0)
(8.58669 -0.0737154 0)
(8.60082 -0.0773453 0)
(8.61435 -0.0809529 0)
(8.6273 -0.0846072 0)
(8.63971 -0.0883782 0)
(8.65162 -0.0923357 0)
(8.66304 -0.096549 0)
(8.67398 -0.101085 0)
(8.68446 -0.106009 0)
(8.69447 -0.111381 0)
(8.70399 -0.117255 0)
(8.713 -0.123677 0)
(8.72146 -0.130685 0)
(8.72931 -0.138302 0)
(8.7365 -0.146537 0)
(8.74296 -0.15539 0)
(8.74863 -0.164798 0)
(8.33343 -0.00278819 0)
(8.3378 -0.00843336 0)
(8.34701 -0.0142852 0)
(8.35987 -0.0204271 0)
(8.37526 -0.026797 0)
(8.39248 -0.0332667 0)
(8.4109 -0.0396956 0)
(8.42995 -0.0459528 0)
(8.4492 -0.051932 0)
(8.46834 -0.0575612 0)
(8.48712 -0.062803 0)
(8.5054 -0.0676508 0)
(8.52305 -0.0721229 0)
(8.54002 -0.0762572 0)
(8.55628 -0.0801053 0)
(8.57181 -0.0837281 0)
(8.58664 -0.0871925 0)
(8.60076 -0.0905684 0)
(8.61422 -0.0939267 0)
(8.62704 -0.0973381 0)
(8.63925 -0.100872 0)
(8.65087 -0.104594 0)
(8.66192 -0.108569 0)
(8.67242 -0.112857 0)
(8.68238 -0.117513 0)
(8.6918 -0.122584 0)
(8.70065 -0.128114 0)
(8.70893 -0.134134 0)
(8.7166 -0.140666 0)
(8.72362 -0.147721 0)
(8.72996 -0.155294 0)
(8.73555 -0.163374 0)
(8.74036 -0.171894 0)
(8.33343 -0.00437988 0)
(8.33775 -0.0131062 0)
(8.34686 -0.0217045 0)
(8.35963 -0.030135 0)
(8.37499 -0.0383142 0)
(8.39226 -0.0461393 0)
(8.4108 -0.0535151 0)
(8.43004 -0.0603695 0)
(8.44954 -0.0666588 0)
(8.46895 -0.0723703 0)
(8.48802 -0.0775189 0)
(8.50657 -0.082143 0)
(8.52448 -0.0862981 0)
(8.54167 -0.090052 0)
(8.5581 -0.0934799 0)
(8.57376 -0.0966609 0)
(8.58864 -0.0996749 0)
(8.60277 -0.102601 0)
(8.61616 -0.105516 0)
(8.62883 -0.108492 0)
(8.64083 -0.111599 0)
(8.65216 -0.114901 0)
(8.66286 -0.118457 0)
(8.67293 -0.12232 0)
(8.6824 -0.126536 0)
(8.69125 -0.131145 0)
(8.69949 -0.136176 0)
(8.7071 -0.141652 0)
(8.71406 -0.147584 0)
(8.72036 -0.153972 0)
(8.72595 -0.160803 0)
(8.73082 -0.168058 0)
(8.73495 -0.175673 0)
(8.33343 -0.00601813 0)
(8.33781 -0.0179217 0)
(8.34706 -0.0293749 0)
(8.36005 -0.0402217 0)
(8.37571 -0.0503595 0)
(8.39335 -0.05971 0)
(8.41233 -0.0682213 0)
(8.43206 -0.0758751 0)
(8.45206 -0.0826841 0)
(8.47196 -0.0886873 0)
(8.49151 -0.0939456 0)
(8.51049 -0.0985367 0)
(8.52878 -0.102549 0)
(8.54629 -0.106079 0)
(8.56297 -0.109223 0)
(8.5788 -0.112078 0)
(8.59377 -0.114738 0)
(8.60792 -0.117292 0)
(8.62124 -0.119824 0)
(8.63378 -0.12241 0)
(8.64557 -0.12512 0)
(8.65662 -0.128018 0)
(8.66696 -0.131159 0)
(8.67662 -0.134592 0)
(8.6856 -0.138355 0)
(8.69392 -0.142482 0)
(8.70158 -0.146995 0)
(8.70857 -0.151906 0)
(8.71489 -0.15722 0)
(8.72052 -0.162929 0)
(8.72546 -0.169014 0)
(8.72968 -0.175453 0)
(8.73318 -0.182182 0)
(8.33345 -0.00774769 0)
(8.338 -0.0230005 0)
(8.34761 -0.0374489 0)
(8.36109 -0.0508009 0)
(8.37732 -0.0629168 0)
(8.39559 -0.0737301 0)
(8.41524 -0.0832305 0)
(8.43564 -0.0914625 0)
(8.4563 -0.0985108 0)
(8.47683 -0.104485 0)
(8.49695 -0.109508 0)
(8.51646 -0.113713 0)
(8.5352 -0.117233 0)
(8.55309 -0.120197 0)
(8.57007 -0.122731 0)
(8.58611 -0.124952 0)
(8.60122 -0.126969 0)
(8.61541 -0.128879 0)
(8.62871 -0.130773 0)
(8.64114 -0.132729 0)
(8.65273 -0.13482 0)
(8.66352 -0.137105 0)
(8.67354 -0.139636 0)
(8.68281 -0.142458 0)
(8.69135 -0.145603 0)
(8.69918 -0.149098 0)
(8.70631 -0.152958 0)
(8.71275 -0.15719 0)
(8.7185 -0.161791 0)
(8.72356 -0.166751 0)
(8.72794 -0.172048 0)
(8.73162 -0.177657 0)
(8.73465 -0.183518 0)
(8.33348 -0.00962541 0)
(8.33836 -0.0285272 0)
(8.34864 -0.0462686 0)
(8.36304 -0.0624415 0)
(8.38033 -0.076895 0)
(8.39973 -0.0895833 0)
(8.42052 -0.100526 0)
(8.44203 -0.109808 0)
(8.46373 -0.117562 0)
(8.4852 -0.123946 0)
(8.50616 -0.129132 0)
(8.52638 -0.133298 0)
(8.54572 -0.136618 0)
(8.56408 -0.13926 0)
(8.58142 -0.14138 0)
(8.59771 -0.143121 0)
(8.61297 -0.144611 0)
(8.62721 -0.145965 0)
(8.64047 -0.147283 0)
(8.65278 -0.148652 0)
(8.66417 -0.150148 0)
(8.67469 -0.151831 0)
(8.68437 -0.153755 0)
(8.69325 -0.155959 0)
(8.70135 -0.158474 0)
(8.7087 -0.16132 0)
(8.71532 -0.164511 0)
(8.72123 -0.168047 0)
(8.72644 -0.171924 0)
(8.73096 -0.176125 0)
(8.73481 -0.180628 0)
(8.73798 -0.185408 0)
(8.74051 -0.190406 0)
(8.33352 -0.0117113 0)
(8.33884 -0.0346163 0)
(8.35003 -0.0558342 0)
(8.3656 -0.0747729 0)
(8.38417 -0.0912607 0)
(8.4049 -0.105305 0)
(8.42704 -0.117017 0)
(8.44985 -0.126596 0)
(8.47278 -0.134282 0)
(8.4954 -0.140328 0)
(8.51738 -0.144982 0)
(8.5385 -0.148479 0)
(8.55861 -0.151042 0)
(8.57761 -0.15287 0)
(8.59545 -0.154145 0)
(8.61212 -0.155027 0)
(8.62764 -0.155659 0)
(8.64202 -0.156162 0)
(8.65532 -0.156642 0)
(8.66756 -0.157188 0)
(8.67882 -0.157877 0)
(8.68912 -0.158769 0)
(8.69851 -0.159913 0)
(8.70705 -0.161347 0)
(8.71476 -0.163098 0)
(8.72168 -0.165185 0)
(8.72785 -0.167614 0)
(8.73328 -0.170385 0)
(8.73802 -0.17349 0)
(8.74207 -0.176914 0)
(8.74547 -0.180631 0)
(8.74823 -0.184618 0)
(8.75041 -0.188822 0)
(8.3336 -0.0141191 0)
(8.33971 -0.0417398 0)
(8.35248 -0.0672427 0)
(8.37008 -0.0899129 0)
(8.39085 -0.109568 0)
(8.41379 -0.126191 0)
(8.43803 -0.139877 0)
(8.46276 -0.15085 0)
(8.48737 -0.159411 0)
(8.51143 -0.165882 0)
(8.53465 -0.17059 0)
(8.55679 -0.17385 0)
(8.57771 -0.175951 0)
(8.59736 -0.177157 0)
(8.61568 -0.177696 0)
(8.63269 -0.17777 0)
(8.64842 -0.17755 0)
(8.66289 -0.177181 0)
(8.67618 -0.176783 0)
(8.68832 -0.176455 0)
(8.69939 -0.176278 0)
(8.70943 -0.176315 0)
(8.71851 -0.176615 0)
(8.72667 -0.177214 0)
(8.73397 -0.178136 0)
(8.74045 -0.179396 0)
(8.74614 -0.181 0)
(8.7511 -0.182942 0)
(8.75535 -0.185215 0)
(8.75892 -0.187799 0)
(8.76185 -0.19067 0)
(8.76416 -0.193805 0)
(8.76589 -0.197151 0)
(8.33366 -0.0169107 0)
(8.34054 -0.0496692 0)
(8.35491 -0.0791533 0)
(8.37453 -0.104477 0)
(8.39752 -0.125672 0)
(8.42282 -0.142996 0)
(8.44945 -0.156787 0)
(8.4765 -0.167465 0)
(8.50329 -0.175466 0)
(8.52934 -0.1812 0)
(8.5543 -0.185051 0)
(8.57794 -0.187372 0)
(8.60012 -0.188481 0)
(8.62078 -0.188657 0)
(8.6399 -0.188149 0)
(8.65752 -0.187168 0)
(8.67366 -0.185896 0)
(8.6884 -0.184486 0)
(8.70181 -0.183066 0)
(8.71396 -0.181738 0)
(8.72494 -0.180586 0)
(8.73481 -0.179674 0)
(8.74364 -0.179053 0)
(8.7515 -0.178757 0)
(8.75845 -0.17881 0)
(8.76455 -0.179224 0)
(8.76985 -0.180004 0)
(8.77439 -0.181146 0)
(8.77823 -0.182638 0)
(8.7814 -0.184463 0)
(8.78396 -0.186598 0)
(8.78593 -0.18902 0)
(8.78738 -0.191677 0)
(8.33391 -0.0204698 0)
(8.34283 -0.0604865 0)
(8.36081 -0.0967971 0)
(8.38459 -0.128187 0)
(8.41158 -0.154444 0)
(8.44052 -0.175605 0)
(8.47033 -0.191983 0)
(8.50009 -0.204144 0)
(8.52917 -0.212722 0)
(8.55714 -0.218329 0)
(8.5837 -0.221537 0)
(8.60866 -0.222859 0)
(8.63192 -0.22274 0)
(8.65343 -0.221557 0)
(8.6732 -0.219626 0)
(8.69128 -0.217208 0)
(8.70773 -0.214517 0)
(8.72263 -0.211723 0)
(8.73607 -0.208965 0)
(8.74815 -0.206348 0)
(8.75894 -0.203957 0)
(8.76854 -0.201852 0)
(8.77703 -0.200079 0)
(8.7845 -0.198668 0)
(8.791 -0.197638 0)
(8.79661 -0.196997 0)
(8.8014 -0.196746 0)
(8.80541 -0.196879 0)
(8.8087 -0.197383 0)
(8.81132 -0.198241 0)
(8.81332 -0.199428 0)
(8.81474 -0.200923 0)
(8.81564 -0.202673 0)
(8.33387 -0.0245313 0)
(8.34362 -0.0707228 0)
(8.36401 -0.110022 0)
(8.3912 -0.142172 0)
(8.42229 -0.168241 0)
(8.45578 -0.18889 0)
(8.49021 -0.204673 0)
(8.5243 -0.216236 0)
(8.55725 -0.224198 0)
(8.58857 -0.229129 0)
(8.61792 -0.231566 0)
(8.64513 -0.232005 0)
(8.67014 -0.230893 0)
(8.69296 -0.22862 0)
(8.71366 -0.225527 0)
(8.73233 -0.221898 0)
(8.74909 -0.217974 0)
(8.76407 -0.213947 0)
(8.7774 -0.209973 0)
(8.7892 -0.206174 0)
(8.79959 -0.202642 0)
(8.8087 -0.199446 0)
(8.81661 -0.196633 0)
(8.82344 -0.194234 0)
(8.82926 -0.192268 0)
(8.83416 -0.190741 0)
(8.83821 -0.189654 0)
(8.84148 -0.188998 0)
(8.84402 -0.188762 0)
(8.84592 -0.188927 0)
(8.84721 -0.189472 0)
(8.84797 -0.190375 0)
(8.84829 -0.191582 0)
(8.33498 -0.031424 0)
(8.35135 -0.0929954 0)
(8.38044 -0.146604 0)
(8.41513 -0.190133 0)
(8.45195 -0.223936 0)
(8.48996 -0.248823 0)
(8.52799 -0.266107 0)
(8.56495 -0.277263 0)
(8.6002 -0.283569 0)
(8.63334 -0.286098 0)
(8.66408 -0.285753 0)
(8.69231 -0.283278 0)
(8.71799 -0.279269 0)
(8.74121 -0.274202 0)
(8.76206 -0.26846 0)
(8.78069 -0.262344 0)
(8.79726 -0.256093 0)
(8.81194 -0.249891 0)
(8.82488 -0.24388 0)
(8.83625 -0.238167 0)
(8.84619 -0.232829 0)
(8.85484 -0.227922 0)
(8.86231 -0.22348 0)
(8.86872 -0.219525 0)
(8.87417 -0.216065 0)
(8.87874 -0.213102 0)
(8.8825 -0.210629 0)
(8.88554 -0.208639 0)
(8.88791 -0.207119 0)
(8.88969 -0.206055 0)
(8.89093 -0.205431 0)
(8.89169 -0.20523 0)
(8.89204 -0.205397 0)
(8.33403 -0.036418 0)
(8.3499 -0.0991872 0)
(8.38385 -0.148145 0)
(8.42666 -0.188011 0)
(8.47279 -0.220758 0)
(8.51982 -0.246126 0)
(8.56563 -0.264564 0)
(8.60901 -0.276969 0)
(8.64961 -0.284192 0)
(8.68735 -0.287108 0)
(8.72226 -0.286604 0)
(8.75448 -0.283494 0)
(8.78417 -0.278486 0)
(8.81151 -0.27218 0)
(8.83665 -0.265068 0)
(8.85976 -0.257541 0)
(8.88096 -0.249902 0)
(8.9004 -0.242383 0)
(8.9182 -0.235153 0)
(8.93449 -0.228333 0)
(8.94936 -0.222007 0)
(8.96293 -0.216225 0)
(8.97529 -0.211016 0)
(8.98654 -0.206392 0)
(8.99675 -0.20235 0)
(9.00601 -0.19888 0)
(9.01439 -0.195967 0)
(9.02194 -0.193597 0)
(9.02874 -0.191754 0)
(9.03484 -0.190429 0)
(9.04032 -0.189618 0)
(9.04527 -0.18932 0)
(9.04979 -0.189495 0)
(8.33959 -0.0605501 0)
(8.37706 -0.169944 0)
(8.42631 -0.248471 0)
(8.47614 -0.301736 0)
(8.52857 -0.336839 0)
(8.5851 -0.358159 0)
(8.64414 -0.369787 0)
(8.70437 -0.374812 0)
(8.76484 -0.375187 0)
(8.82445 -0.372239 0)
(8.88221 -0.366911 0)
(8.93736 -0.359878 0)
(8.98936 -0.351641 0)
(9.03788 -0.342593 0)
(9.08273 -0.333051 0)
(9.12388 -0.323279 0)
(9.16139 -0.313494 0)
(9.1954 -0.303877 0)
(9.2261 -0.294569 0)
(9.2537 -0.285684 0)
(9.27843 -0.277303 0)
(9.30054 -0.269482 0)
(9.32024 -0.262259 0)
(9.33774 -0.25565 0)
(9.35325 -0.249659 0)
(9.36693 -0.244281 0)
(9.37894 -0.239507 0)
(9.38941 -0.235325 0)
(9.39848 -0.231735 0)
(9.40624 -0.228739 0)
(9.4128 -0.226392 0)
(9.41826 -0.224696 0)
(9.42283 -0.223839 0)
(8.33759 -0.046568 0)
(8.3935 -0.121073 0)
(8.49375 -0.185156 0)
(8.60854 -0.247043 0)
(8.73037 -0.300238 0)
(8.85373 -0.341573 0)
(8.9717 -0.371769 0)
(9.08017 -0.391716 0)
(9.17691 -0.402565 0)
(9.26072 -0.405903 0)
(9.33134 -0.403354 0)
(9.38923 -0.396383 0)
(9.43524 -0.386254 0)
(9.4705 -0.374017 0)
(9.49623 -0.360515 0)
(9.51367 -0.346405 0)
(9.52398 -0.332188 0)
(9.52825 -0.318234 0)
(9.52744 -0.304807 0)
(9.5224 -0.292087 0)
(9.51385 -0.280184 0)
(9.50242 -0.26916 0)
(9.48861 -0.259036 0)
(9.47288 -0.249804 0)
(9.45556 -0.241434 0)
(9.43696 -0.233881 0)
(9.41729 -0.227092 0)
(9.39672 -0.221014 0)
(9.37539 -0.215604 0)
(9.35331 -0.210835 0)
(9.33063 -0.206803 0)
(9.30704 -0.203464 0)
(9.2833 -0.201877 0)
(8.40924 -0.221333 0)
(8.63496 -0.428482 0)
(8.83313 -0.522918 0)
(8.97683 -0.583705 0)
(9.0704 -0.616648 0)
(9.11286 -0.627352 0)
(9.10851 -0.623397 0)
(9.06678 -0.608853 0)
(8.99652 -0.586554 0)
(8.90519 -0.559064 0)
(8.79926 -0.528442 0)
(8.68408 -0.496271 0)
(8.56383 -0.463775 0)
(8.4417 -0.43187 0)
(8.32005 -0.401205 0)
(8.20056 -0.372211 0)
(8.08438 -0.345149 0)
(7.97226 -0.320149 0)
(7.86463 -0.297245 0)
(7.7617 -0.2764 0)
(7.6635 -0.257533 0)
(7.56995 -0.240531 0)
(7.48091 -0.225261 0)
(7.39616 -0.211581 0)
(7.31546 -0.19934 0)
(7.23857 -0.188389 0)
(7.16522 -0.178567 0)
(7.09513 -0.169722 0)
(7.02801 -0.161672 0)
(6.96343 -0.154244 0)
(6.90102 -0.147334 0)
(6.83965 -0.140032 0)
(6.77979 -0.136101 0)
(8.13708 -0.207185 0)
(7.84764 -0.388123 0)
(7.38523 -0.439525 0)
(6.85962 -0.440187 0)
(6.3598 -0.408899 0)
(5.88867 -0.359949 0)
(5.44885 -0.305618 0)
(5.04773 -0.252299 0)
(4.68637 -0.203212 0)
(4.36279 -0.159975 0)
(4.07464 -0.123033 0)
(3.81907 -0.0921617 0)
(3.59287 -0.0668215 0)
(3.3929 -0.0463234 0)
(3.21614 -0.0299436 0)
(3.05979 -0.0169978 0)
(2.92131 -0.00687516 0)
(2.7984 0.000950822 0)
(2.68903 0.00692279 0)
(2.59141 0.0114068 0)
(2.50396 0.0147022 0)
(2.42531 0.0170526 0)
(2.35428 0.0186564 0)
(2.28985 0.0196758 0)
(2.23112 0.0202494 0)
(2.17737 0.0204974 0)
(2.12793 0.0205526 0)
(2.08238 0.0205481 0)
(2.04014 0.0207306 0)
(2.00143 0.0214358 0)
(1.96522 0.0230231 0)
(1.93383 0.0283754 0)
(1.90493 0.0229562 0)
(1.0028 0.120742 0)
(1.79005 0.768516 0)
(3.08309 1.28873 0)
(4.24982 1.46228 0)
(5.1416 1.26895 0)
(5.74689 0.811372 0)
(6.10963 0.218412 0)
(6.2083 -0.377169 0)