/*--------------------------------*- C++ -*----------------------------------*\
| =========                 |                                                 |
| \\      /  F ield         | OpenFOAM: The Open Source CFD Toolbox           |
|  \\    /   O peration     | Version:  2.1.1                                 |
|   \\  /    A nd           | Web:      www.OpenFOAM.org                      |
|    \\/     M anipulation  |                                                 |
\*---------------------------------------------------------------------------*/
FoamFile
{
    version     2.0;
    format      ascii;
    class       volScalarField;
    location    "0.065";
    object      nuSgs;
}
// * * * * * * * * * * * * * * * * * * * * * * * * * * * * * * * * * * * * * //

dimensions      [0 2 -1 0 0 0 0];

internalField   nonuniform List<scalar> 
6820
(
0.000556015
0.000457375
0.000368026
0.000305903
0.000268586
0.000242833
0.000223833
0.000209256
0.000197439
0.000187471
0.000178834
0.000171194
0.000164323
0.000158063
0.000152294
0.000146924
0.000141883
0.00013711
0.000132556
0.000128179
0.000123939
0.000119802
0.000115733
0.000111699
0.000107667
0.000103601
9.94647e-05
9.52179e-05
9.0814e-05
8.62099e-05
8.13284e-05
7.60268e-05
7.03967e-05
0.000103508
0.00017069
0.000223692
0.000240056
0.00023528
0.000224889
0.00021316
0.000201839
0.000191568
0.000182364
0.000174108
0.000166666
0.000159914
0.000153748
0.000148083
0.000142848
0.000137986
0.000133446
0.000129189
0.000125179
0.000121386
0.000117786
0.000114357
0.000111079
0.000107935
0.000104911
0.000101994
9.9168e-05
9.64284e-05
9.37392e-05
9.1139e-05
8.85124e-05
8.6292e-05
3.67718e-05
2.84602e-05
4.56681e-05
8.24086e-05
0.0001081
0.000123739
0.000132205
0.000136092
0.000137226
0.000136682
0.0001351
0.00013288
0.000130272
0.000127441
0.000124495
0.000121506
0.000118523
0.000115577
0.000112691
0.00010988
0.000107154
0.000104521
0.000101984
9.95481e-05
9.72172e-05
9.49951e-05
9.2887e-05
9.08988e-05
8.90427e-05
8.73249e-05
8.57883e-05
8.44625e-05
8.36366e-05
2.07357e-05
2.86679e-05
2.65274e-05
1.50201e-05
3.61475e-06
1.40118e-05
2.59203e-05
3.58241e-05
4.38284e-05
5.02076e-05
5.52376e-05
5.91637e-05
6.21884e-05
6.44713e-05
6.61484e-05
6.73327e-05
6.81173e-05
6.85797e-05
6.87848e-05
6.87866e-05
6.86314e-05
6.83587e-05
6.80032e-05
6.75958e-05
6.7165e-05
6.6738e-05
6.63416e-05
6.60039e-05
6.57571e-05
6.56377e-05
6.57003e-05
6.60388e-05
6.68153e-05
1.4423e-05
1.75656e-05
2.25871e-05
2.42856e-05
2.39558e-05
2.19651e-05
1.90528e-05
1.5758e-05
1.23141e-05
8.87133e-06
5.53715e-06
2.39507e-06
8.51389e-07
3.45192e-06
5.96729e-06
8.27335e-06
1.0373e-05
1.228e-05
1.40121e-05
1.55895e-05
1.70336e-05
1.83668e-05
1.96121e-05
2.07936e-05
2.19366e-05
2.30679e-05
2.4217e-05
2.5417e-05
2.67053e-05
2.81305e-05
2.97418e-05
3.1643e-05
3.38698e-05
1.09255e-05
1.24765e-05
1.37943e-05
1.43076e-05
1.50993e-05
1.57443e-05
1.61253e-05
1.6334e-05
1.63735e-05
1.62484e-05
1.59817e-05
1.55964e-05
1.51142e-05
1.45487e-05
1.39178e-05
1.32375e-05
1.25207e-05
1.1778e-05
1.10166e-05
1.02409e-05
9.45279e-06
8.65153e-06
7.83387e-06
6.99404e-06
6.12362e-06
5.21124e-06
4.24269e-06
3.20092e-06
2.07419e-06
9.25775e-07
1.04558e-06
2.6428e-06
4.63192e-06
8.25357e-06
9.40839e-06
1.02146e-05
1.00091e-05
9.81967e-06
9.64279e-06
9.46058e-06
9.37476e-06
9.37394e-06
9.41379e-06
9.46724e-06
9.51618e-06
9.54939e-06
9.56418e-06
9.55751e-06
9.52782e-06
9.47473e-06
9.39858e-06
9.29998e-06
9.17954e-06
9.03765e-06
8.87433e-06
8.68906e-06
8.48064e-06
8.24707e-06
7.98537e-06
7.69176e-06
7.36145e-06
6.99097e-06
6.57788e-06
6.13772e-06
5.70466e-06
5.40823e-06
6.37397e-06
7.39174e-06
8.18216e-06
8.03897e-06
7.72498e-06
7.38205e-06
7.00033e-06
6.67068e-06
6.41182e-06
6.20312e-06
6.03186e-06
5.88888e-06
5.76512e-06
5.65383e-06
5.55045e-06
5.45153e-06
5.35416e-06
5.25595e-06
5.15486e-06
5.04918e-06
4.93738e-06
4.81806e-06
4.68991e-06
4.55175e-06
4.40266e-06
4.24221e-06
4.07121e-06
3.8929e-06
3.7163e-06
3.56035e-06
3.46671e-06
3.5059e-06
3.78072e-06
5.01802e-06
5.84512e-06
6.50763e-06
6.49273e-06
6.31987e-06
6.10782e-06
5.81937e-06
5.5262e-06
5.26651e-06
5.0365e-06
4.8313e-06
4.64727e-06
4.47936e-06
4.32308e-06
4.17517e-06
4.03296e-06
3.89413e-06
3.7567e-06
3.61891e-06
3.47911e-06
3.33576e-06
3.18745e-06
3.03296e-06
2.87148e-06
2.70305e-06
2.52936e-06
2.35532e-06
2.19194e-06
2.06137e-06
2.00153e-06
2.06852e-06
2.3122e-06
2.76846e-06
4.01718e-06
4.69775e-06
5.27541e-06
5.33519e-06
5.22627e-06
5.07262e-06
4.85041e-06
4.6138e-06
4.40004e-06
4.20804e-06
4.03316e-06
3.87301e-06
3.72428e-06
3.58376e-06
3.44904e-06
3.31825e-06
3.18972e-06
3.062e-06
2.93377e-06
2.80385e-06
2.67124e-06
2.53524e-06
2.39564e-06
2.25312e-06
2.10997e-06
1.9713e-06
1.8471e-06
1.75488e-06
1.72203e-06
1.78217e-06
1.96747e-06
2.28737e-06
2.74892e-06
3.26251e-06
3.82974e-06
4.33452e-06
4.43301e-06
4.37042e-06
4.26395e-06
4.09653e-06
3.90418e-06
3.7211e-06
3.55143e-06
3.39363e-06
3.24752e-06
3.11151e-06
2.98332e-06
2.86102e-06
2.74298e-06
2.62776e-06
2.51412e-06
2.40104e-06
2.28779e-06
2.17403e-06
2.05994e-06
1.94659e-06
1.83646e-06
1.73428e-06
1.64818e-06
1.59094e-06
1.58033e-06
1.63715e-06
1.77878e-06
2.0168e-06
2.34668e-06
2.77218e-06
2.68083e-06
3.15912e-06
3.60973e-06
3.7408e-06
3.72171e-06
3.65192e-06
3.52256e-06
3.36108e-06
3.19997e-06
3.04734e-06
2.90355e-06
2.76919e-06
2.6436e-06
2.52517e-06
2.4124e-06
2.30407e-06
2.19914e-06
2.09678e-06
1.99647e-06
1.89806e-06
1.80196e-06
1.70936e-06
1.62261e-06
1.54579e-06
1.48528e-06
1.45026e-06
1.45254e-06
1.50479e-06
1.61809e-06
1.79828e-06
2.04815e-06
2.36014e-06
2.73808e-06
2.22247e-06
2.63331e-06
3.04417e-06
3.19819e-06
3.21257e-06
3.17144e-06
3.07412e-06
2.94208e-06
2.80361e-06
2.66837e-06
2.53814e-06
2.41448e-06
2.29785e-06
2.18761e-06
2.08293e-06
1.98314e-06
1.88765e-06
1.79609e-06
1.70845e-06
1.62518e-06
1.54738e-06
1.47711e-06
1.41764e-06
1.37377e-06
1.35195e-06
1.35993e-06
1.40579e-06
1.4963e-06
1.63592e-06
1.82542e-06
2.0648e-06
2.34667e-06
2.67499e-06
1.85377e-06
2.21452e-06
2.59633e-06
2.76859e-06
2.81214e-06
2.79663e-06
2.7264e-06
2.61904e-06
2.4994e-06
2.37849e-06
2.25979e-06
2.14577e-06
2.03771e-06
1.93568e-06
1.83939e-06
1.74856e-06
1.66304e-06
1.58289e-06
1.50856e-06
1.44102e-06
1.38194e-06
1.33382e-06
1.30014e-06
1.28535e-06
1.29456e-06
1.33292e-06
1.40487e-06
1.51328e-06
1.65944e-06
1.84237e-06
2.06128e-06
2.30955e-06
2.59116e-06
1.55122e-06
1.87627e-06
2.23786e-06
2.42553e-06
2.49378e-06
2.49992e-06
2.45202e-06
2.36586e-06
2.26345e-06
2.15634e-06
2.0491e-06
1.94479e-06
1.84532e-06
1.75142e-06
1.66335e-06
1.5813e-06
1.50557e-06
1.43664e-06
1.37534e-06
1.32298e-06
1.2814e-06
1.25307e-06
1.24099e-06
1.24852e-06
1.27901e-06
1.33532e-06
1.41948e-06
1.53236e-06
1.6739e-06
1.84261e-06
2.03742e-06
2.25256e-06
2.49194e-06
1.29808e-06
1.59959e-06
1.94812e-06
2.14941e-06
2.23922e-06
2.26492e-06
2.23684e-06
2.16967e-06
2.08296e-06
1.98841e-06
1.89153e-06
1.79605e-06
1.70453e-06
1.6183e-06
1.53814e-06
1.46465e-06
1.39846e-06
1.34033e-06
1.29129e-06
1.25268e-06
1.22621e-06
1.21389e-06
1.21792e-06
1.24045e-06
1.28335e-06
1.34795e-06
1.43492e-06
1.5442e-06
1.67517e-06
1.82623e-06
1.99622e-06
2.18026e-06
2.38207e-06
1.08224e-06
1.3708e-06
1.71242e-06
1.92634e-06
2.03531e-06
2.07872e-06
2.06819e-06
2.0178e-06
1.94533e-06
1.86244e-06
1.77542e-06
1.68857e-06
1.60489e-06
1.52622e-06
1.45374e-06
1.38838e-06
1.33099e-06
1.28248e-06
1.2439e-06
1.21645e-06
1.20149e-06
1.20042e-06
1.21465e-06
1.24535e-06
1.29338e-06
1.35919e-06
1.44275e-06
1.54358e-06
1.66083e-06
1.79296e-06
1.93883e-06
2.09421e-06
2.2627e-06
8.94797e-07
1.18016e-06
1.52024e-06
1.74619e-06
1.8724e-06
1.93211e-06
1.93756e-06
1.9025e-06
1.84328e-06
1.7714e-06
1.69371e-06
1.61496e-06
1.53858e-06
1.46685e-06
1.40128e-06
1.34306e-06
1.29318e-06
1.25259e-06
1.22221e-06
1.20298e-06
1.19583e-06
1.20164e-06
1.22113e-06
1.25481e-06
1.30291e-06
1.36538e-06
1.44184e-06
1.53161e-06
1.63377e-06
1.74689e-06
1.86999e-06
1.99949e-06
2.13874e-06
7.29286e-07
1.02101e-06
1.36421e-06
1.60177e-06
1.74363e-06
1.81841e-06
1.83853e-06
1.81743e-06
1.7704e-06
1.70874e-06
1.63968e-06
1.56841e-06
1.4987e-06
1.43312e-06
1.37348e-06
1.32109e-06
1.27702e-06
1.24213e-06
1.21718e-06
1.20286e-06
1.19971e-06
1.20817e-06
1.22854e-06
1.2609e-06
1.30513e-06
1.36092e-06
1.42775e-06
1.50486e-06
1.59137e-06
1.68603e-06
1.78789e-06
1.894e-06
2.00762e-06
5.81359e-07
8.89382e-07
1.23948e-06
1.48818e-06
1.64424e-06
1.73292e-06
1.76655e-06
1.75826e-06
1.72252e-06
1.67038e-06
1.60935e-06
1.54493e-06
1.48116e-06
1.42088e-06
1.36605e-06
1.31811e-06
1.2781e-06
1.24682e-06
1.22485e-06
1.21263e-06
1.21044e-06
1.21842e-06
1.23655e-06
1.26468e-06
1.30252e-06
1.34962e-06
1.40541e-06
1.46917e-06
1.54008e-06
1.61708e-06
1.69935e-06
1.78451e-06
1.87548e-06
4.49215e-07
7.83853e-07
1.1432e-06
1.40226e-06
1.57106e-06
1.67246e-06
1.71844e-06
1.72181e-06
1.69631e-06
1.65273e-06
1.59876e-06
1.54012e-06
1.48105e-06
1.42458e-06
1.37282e-06
1.32727e-06
1.28896e-06
1.25863e-06
1.23672e-06
1.22352e-06
1.21911e-06
1.22347e-06
1.23644e-06
1.25775e-06
1.28702e-06
1.32379e-06
1.36752e-06
1.41755e-06
1.47317e-06
1.5335e-06
1.59786e-06
1.66428e-06
1.73549e-06
3.35858e-07
7.05591e-07
1.07423e-06
1.34235e-06
1.52235e-06
1.63525e-06
1.6925e-06
1.70648e-06
1.69034e-06
1.65461e-06
1.60705e-06
1.55353e-06
1.49846e-06
1.44497e-06
1.39526e-06
1.35087e-06
1.31282e-06
1.28175e-06
1.25803e-06
1.24184e-06
1.23316e-06
1.23188e-06
1.23776e-06
1.25052e-06
1.26978e-06
1.29512e-06
1.32607e-06
1.3621e-06
1.40264e-06
1.44699e-06
1.49464e-06
1.54405e-06
1.59767e-06
2.55918e-07
6.58013e-07
1.03279e-06
1.30793e-06
1.49739e-06
1.62038e-06
1.68754e-06
1.71071e-06
1.70246e-06
1.67303e-06
1.6302e-06
1.57994e-06
1.52677e-06
1.47398e-06
1.42385e-06
1.37799e-06
1.33742e-06
1.30279e-06
1.27445e-06
1.25252e-06
1.23696e-06
1.22765e-06
1.22437e-06
1.22683e-06
1.23475e-06
1.24778e-06
1.26557e-06
1.28772e-06
1.3138e-06
1.34333e-06
1.37588e-06
1.41024e-06
1.44862e-06
2.42146e-07
6.45648e-07
1.02013e-06
1.29964e-06
1.49671e-06
1.62852e-06
1.70468e-06
1.73639e-06
1.73565e-06
1.71238e-06
1.67427e-06
1.62731e-06
1.57606e-06
1.52384e-06
1.47298e-06
1.42508e-06
1.38121e-06
1.342e-06
1.30781e-06
1.27875e-06
1.25484e-06
1.23596e-06
1.22196e-06
1.21266e-06
1.20787e-06
1.20738e-06
1.211e-06
1.2185e-06
1.22965e-06
1.24418e-06
1.26183e-06
1.2818e-06
1.30597e-06
3.08288e-07
6.71889e-07
1.03793e-06
1.31866e-06
1.52114e-06
1.6598e-06
1.74279e-06
1.7805e-06
1.7844e-06
1.76417e-06
1.72746e-06
1.68037e-06
1.62756e-06
1.57247e-06
1.51755e-06
1.46447e-06
1.41433e-06
1.3678e-06
1.32525e-06
1.28683e-06
1.25258e-06
1.22243e-06
1.19633e-06
1.17417e-06
1.1559e-06
1.14147e-06
1.13086e-06
1.12406e-06
1.12102e-06
1.12167e-06
1.12592e-06
1.13319e-06
1.14517e-06
4.26747e-07
7.3745e-07
1.08823e-06
1.36746e-06
1.5741e-06
1.71941e-06
1.80988e-06
1.85489e-06
1.86524e-06
1.85015e-06
1.81699e-06
1.77171e-06
1.71895e-06
1.66214e-06
1.60379e-06
1.54565e-06
1.4889e-06
1.43432e-06
1.38234e-06
1.33323e-06
1.28709e-06
1.24399e-06
1.20393e-06
1.16698e-06
1.1332e-06
1.10272e-06
1.07572e-06
1.05241e-06
1.033e-06
1.01773e-06
1.00676e-06
9.99962e-07
9.98737e-07
5.77311e-07
8.41672e-07
1.17359e-06
1.4483e-06
1.65575e-06
1.80347e-06
1.896e-06
1.94193e-06
1.95186e-06
1.93501e-06
1.89888e-06
1.84953e-06
1.7917e-06
1.72891e-06
1.66367e-06
1.59773e-06
1.53229e-06
1.46807e-06
1.40554e-06
1.34495e-06
1.28642e-06
1.23005e-06
1.17594e-06
1.1242e-06
1.07505e-06
1.02875e-06
9.85686e-07
9.4631e-07
9.11117e-07
8.8065e-07
8.55366e-07
8.35473e-07
8.22425e-07
7.54778e-07
9.82993e-07
1.29633e-06
1.56704e-06
1.77815e-06
1.93373e-06
2.03566e-06
2.09073e-06
2.10835e-06
2.09698e-06
2.06368e-06
2.01446e-06
1.95416e-06
1.88653e-06
1.81436e-06
1.7397e-06
1.66397e-06
1.58814e-06
1.51284e-06
1.43845e-06
1.36521e-06
1.29328e-06
1.2228e-06
1.15394e-06
1.08692e-06
1.02206e-06
9.59797e-07
9.00694e-07
8.45431e-07
7.9488e-07
7.49862e-07
7.11439e-07
6.80824e-07
9.63124e-07
1.16656e-06
1.46341e-06
1.7253e-06
1.92966e-06
2.07836e-06
2.17252e-06
2.21944e-06
2.22927e-06
2.21081e-06
2.17107e-06
2.11581e-06
2.04959e-06
1.9758e-06
1.89698e-06
1.81495e-06
1.731e-06
1.64603e-06
1.56064e-06
1.47523e-06
1.39005e-06
1.30531e-06
1.22116e-06
1.13779e-06
1.05541e-06
9.74343e-07
8.94985e-07
8.17889e-07
7.43745e-07
6.73492e-07
6.08172e-07
5.49285e-07
4.98715e-07
1.20613e-06
1.3889e-06
1.67535e-06
1.94162e-06
2.16177e-06
2.33185e-06
2.44664e-06
2.50958e-06
2.52941e-06
2.51479e-06
2.4734e-06
2.41199e-06
2.3362e-06
2.2504e-06
2.15789e-06
2.06109e-06
1.96171e-06
1.86094e-06
1.75955e-06
1.65805e-06
1.55676e-06
1.45589e-06
1.35556e-06
1.25592e-06
1.15708e-06
1.05923e-06
9.62593e-07
8.67474e-07
7.74234e-07
6.83446e-07
5.95555e-07
5.11988e-07
4.32364e-07
1.50445e-06
1.68358e-06
1.95811e-06
2.19927e-06
2.38656e-06
2.52427e-06
2.61247e-06
2.65714e-06
2.66694e-06
2.64858e-06
2.60726e-06
2.54762e-06
2.4737e-06
2.38887e-06
2.29584e-06
2.19685e-06
2.09365e-06
1.98759e-06
1.87971e-06
1.77076e-06
1.66131e-06
1.55178e-06
1.44249e-06
1.33371e-06
1.22565e-06
1.11855e-06
1.01265e-06
9.08205e-07
8.05479e-07
7.04811e-07
6.06365e-07
5.10891e-07
4.17092e-07
1.84983e-06
2.00727e-06
2.29904e-06
2.59601e-06
2.85433e-06
3.05354e-06
3.18009e-06
3.23935e-06
3.24535e-06
3.21083e-06
3.14615e-06
3.05989e-06
2.9587e-06
2.84737e-06
2.72934e-06
2.60705e-06
2.48219e-06
2.35597e-06
2.22924e-06
2.1026e-06
1.97652e-06
1.85134e-06
1.72737e-06
1.60486e-06
1.48408e-06
1.36532e-06
1.24888e-06
1.13513e-06
1.0245e-06
9.17543e-07
8.14629e-07
7.17202e-07
6.23212e-07
2.33742e-06
2.52606e-06
2.7617e-06
2.93413e-06
3.07234e-06
3.19707e-06
3.29734e-06
3.36535e-06
3.39978e-06
3.40046e-06
3.36919e-06
3.31014e-06
3.22834e-06
3.12863e-06
3.0154e-06
2.89239e-06
2.76268e-06
2.62871e-06
2.49237e-06
2.35512e-06
2.21808e-06
2.08209e-06
1.94783e-06
1.81586e-06
1.68663e-06
1.5606e-06
1.43822e-06
1.31999e-06
1.20646e-06
1.09834e-06
9.96241e-07
9.01633e-07
8.13398e-07
2.82086e-06
2.97046e-06
3.40573e-06
3.85082e-06
4.18551e-06
4.39148e-06
4.47907e-06
4.47985e-06
4.42407e-06
4.33018e-06
4.20954e-06
4.07027e-06
3.91802e-06
3.7567e-06
3.58936e-06
3.41855e-06
3.24639e-06
3.07469e-06
2.90492e-06
2.73831e-06
2.5758e-06
2.41816e-06
2.26595e-06
2.11963e-06
1.97954e-06
1.84599e-06
1.71926e-06
1.59967e-06
1.48756e-06
1.38347e-06
1.2877e-06
1.2018e-06
1.12339e-06
3.86969e-06
4.00645e-06
3.9589e-06
3.92016e-06
4.05209e-06
4.28277e-06
4.49012e-06
4.626e-06
4.68795e-06
4.68615e-06
4.63726e-06
4.55951e-06
4.4677e-06
4.37218e-06
4.27948e-06
4.19316e-06
4.11455e-06
4.04365e-06
3.97974e-06
3.92179e-06
3.86876e-06
3.81973e-06
3.77392e-06
3.73073e-06
3.6897e-06
3.65046e-06
3.61277e-06
3.57642e-06
3.5413e-06
3.50748e-06
3.4751e-06
3.4458e-06
3.41764e-06
4.34002e-06
4.95883e-06
5.97323e-06
6.4787e-06
6.60846e-06
6.59198e-06
6.58235e-06
6.68447e-06
6.92945e-06
7.28756e-06
7.71091e-06
8.15615e-06
8.58986e-06
8.9895e-06
9.34206e-06
9.64148e-06
9.88641e-06
1.00785e-05
1.02211e-05
1.03187e-05
1.03759e-05
1.03976e-05
1.03881e-05
1.03517e-05
1.02921e-05
1.02125e-05
1.01155e-05
1.00034e-05
9.87791e-06
9.74028e-06
9.59232e-06
9.43614e-06
9.27305e-06
7.5388e-06
5.83e-06
4.67176e-06
6.27294e-06
8.99561e-06
1.16957e-05
1.40176e-05
1.5901e-05
1.73449e-05
1.83635e-05
1.89933e-05
1.92816e-05
1.92777e-05
1.90303e-05
1.85858e-05
1.79866e-05
1.72698e-05
1.64673e-05
1.56061e-05
1.47081e-05
1.3791e-05
1.2869e-05
1.19528e-05
1.10508e-05
1.01688e-05
9.31095e-06
8.47966e-06
7.67569e-06
6.89912e-06
6.14671e-06
5.41954e-06
4.70573e-06
4.02059e-06
8.58432e-06
1.47481e-05
1.88534e-05
2.12541e-05
2.23391e-05
2.18631e-05
2.0003e-05
1.72133e-05
1.39671e-05
1.08985e-05
9.03435e-06
9.44719e-06
1.18563e-05
1.51691e-05
1.87088e-05
2.21762e-05
2.54403e-05
2.84443e-05
3.11679e-05
3.36094e-05
3.57782e-05
3.76889e-05
3.93592e-05
4.08077e-05
4.20532e-05
4.31137e-05
4.40066e-05
4.47491e-05
4.53576e-05
4.58531e-05
4.62507e-05
4.66089e-05
4.69163e-05
3.46361e-05
3.72247e-05
4.66676e-05
6.17933e-05
7.75013e-05
9.29037e-05
0.000107301
0.000119987
0.000130774
0.000139705
0.000146894
0.000152501
0.000156715
0.000159719
0.000161689
0.000162782
0.00016314
0.000162886
0.000162126
0.000160951
0.000159438
0.000157651
0.000155646
0.000153467
0.000151153
0.000148732
0.000146231
0.000143667
0.000141059
0.00013841
0.000135723
0.000133088
0.000130517
0.000608442
0.000582503
0.000556882
0.00053042
0.000504415
0.000479184
0.000454766
0.000431431
0.000409358
0.000388603
0.000369181
0.000351075
0.000334237
0.000318599
0.000304081
0.0002906
0.00027807
0.000266408
0.000255536
0.00024538
0.000235872
0.000226949
0.000218555
0.000210641
0.000203161
0.000196074
0.000189344
0.000182935
0.00017681
0.000170948
0.00016522
0.000160161
0.000155542
6.84839e-05
6.17225e-05
6.01205e-05
5.57715e-05
4.99027e-05
4.37722e-05
3.76354e-05
3.24383e-05
2.85026e-05
2.29513e-05
1.74654e-05
1.94001e-05
2.76905e-05
3.93532e-05
4.23308e-05
3.44463e-05
3.27068e-05
4.02525e-05
4.38987e-05
4.26019e-05
4.0403e-05
3.87807e-05
4.20961e-05
4.78809e-05
4.94636e-05
5.0398e-05
4.68797e-05
3.91735e-05
3.21019e-05
2.77288e-05
2.50418e-05
2.24545e-05
1.91028e-05
1.4836e-05
1.03635e-05
7.03979e-06
7.01725e-06
1.31373e-05
2.12181e-05
2.6863e-05
3.01801e-05
3.23862e-05
3.30553e-05
3.14411e-05
2.8132e-05
2.45091e-05
2.13886e-05
1.88273e-05
1.66578e-05
1.47703e-05
1.31123e-05
1.1647e-05
1.03396e-05
9.16044e-06
8.0874e-06
7.10631e-06
6.20882e-06
5.3904e-06
4.64871e-06
3.98237e-06
3.3901e-06
2.87003e-06
2.41937e-06
2.03423e-06
1.70982e-06
1.44057e-06
1.22042e-06
1.04316e-06
9.02689e-07
7.93464e-07
7.10481e-07
6.49504e-07
6.06924e-07
5.79811e-07
5.65862e-07
5.63157e-07
5.69598e-07
5.82528e-07
5.98979e-07
6.16826e-07
6.35839e-07
6.56837e-07
6.78739e-07
6.96588e-07
7.03838e-07
6.9753e-07
6.81044e-07
6.61544e-07
6.44598e-07
6.30842e-07
6.17705e-07
6.01618e-07
5.81176e-07
5.53699e-07
5.22017e-07
4.7954e-07
4.43656e-07
3.82255e-07
3.79303e-07
2.78076e-07
0.00011219
9.85024e-05
7.689e-05
6.3849e-05
5.54544e-05
4.66425e-05
3.68317e-05
2.73711e-05
1.82497e-05
1.02292e-05
1.16597e-05
2.34819e-05
3.8452e-05
4.42441e-05
3.55617e-05
2.66896e-05
3.37123e-05
4.09678e-05
4.17718e-05
3.95027e-05
3.78525e-05
3.69829e-05
3.80333e-05
4.32368e-05
4.66633e-05
4.80522e-05
4.71523e-05
4.12109e-05
3.35134e-05
2.77291e-05
2.41296e-05
2.11858e-05
1.77422e-05
1.34761e-05
8.81482e-06
4.04974e-06
6.74706e-06
1.62555e-05
2.40573e-05
2.85175e-05
3.14552e-05
3.35236e-05
3.36296e-05
3.13187e-05
2.77075e-05
2.41635e-05
2.12073e-05
1.87603e-05
1.66644e-05
1.48316e-05
1.32139e-05
1.17733e-05
1.04766e-05
9.29792e-06
8.21942e-06
7.22996e-06
6.32298e-06
5.49484e-06
4.74363e-06
4.06819e-06
3.46735e-06
2.93931e-06
2.48129e-06
2.08947e-06
1.75902e-06
1.48439e-06
1.25954e-06
1.07829e-06
9.34598e-07
8.22866e-07
7.37979e-07
6.75386e-07
6.31272e-07
6.02539e-07
5.86788e-07
5.82108e-07
5.86492e-07
5.97404e-07
6.12034e-07
6.28446e-07
6.46769e-07
6.68376e-07
6.92669e-07
7.14623e-07
7.26769e-07
7.24795e-07
7.10906e-07
6.91493e-07
6.72149e-07
6.54335e-07
6.36706e-07
6.16629e-07
5.93183e-07
5.63675e-07
5.30797e-07
4.8748e-07
4.5108e-07
3.88711e-07
3.85985e-07
2.82782e-07
0.000112554
0.000116973
0.000108621
9.01344e-05
7.08791e-05
5.53787e-05
4.29113e-05
3.24111e-05
2.47019e-05
2.43125e-05
3.26938e-05
4.32288e-05
4.57297e-05
3.55435e-05
2.28988e-05
2.83172e-05
3.7934e-05
4.07701e-05
3.92047e-05
3.70202e-05
3.60181e-05
3.60825e-05
3.62968e-05
3.9416e-05
4.33645e-05
4.52939e-05
4.603e-05
4.30166e-05
3.61837e-05
2.90516e-05
2.37604e-05
1.98307e-05
1.59577e-05
1.14896e-05
6.12042e-06
1.7718e-06
1.16241e-05
2.10327e-05
2.67949e-05
3.00957e-05
3.29254e-05
3.46797e-05
3.39449e-05
3.09256e-05
2.7155e-05
2.37778e-05
2.10108e-05
1.86914e-05
1.66796e-05
1.49055e-05
1.33268e-05
1.19082e-05
1.06204e-05
9.44199e-06
8.3587e-06
7.36172e-06
6.44578e-06
5.608e-06
4.84694e-06
4.16177e-06
3.55157e-06
3.0147e-06
2.54853e-06
2.14929e-06
1.81218e-06
1.53159e-06
1.30141e-06
1.11537e-06
9.6733e-07
8.51585e-07
7.63131e-07
6.97608e-07
6.51253e-07
6.20897e-07
6.0395e-07
5.98199e-07
6.01368e-07
6.10744e-07
6.23495e-07
6.37877e-07
6.5447e-07
6.75394e-07
7.0084e-07
7.26054e-07
7.43108e-07
7.46527e-07
7.37009e-07
7.1978e-07
7.0003e-07
6.79691e-07
6.58422e-07
6.34628e-07
6.08111e-07
5.76395e-07
5.42185e-07
4.97991e-07
4.61114e-07
3.97915e-07
3.95606e-07
2.90803e-07
9.16547e-05
9.82682e-05
0.000102767
0.000101422
9.26072e-05
7.96699e-05
6.71731e-05
5.78743e-05
5.34134e-05
5.27175e-05
5.17725e-05
4.5056e-05
3.07151e-05
1.80601e-05
2.54941e-05
3.58614e-05
3.93872e-05
3.81792e-05
3.60255e-05
3.47426e-05
3.43809e-05
3.49641e-05
3.54563e-05
3.7035e-05
4.0248e-05
4.25016e-05
4.37275e-05
4.32981e-05
3.919e-05
3.25019e-05
2.57853e-05
2.01717e-05
1.52793e-05
1.06035e-05
7.02309e-06
1.07883e-05
1.92667e-05
2.56105e-05
2.89209e-05
3.17331e-05
3.4575e-05
3.56026e-05
3.37898e-05
3.02072e-05
2.64905e-05
2.33695e-05
2.08063e-05
1.86163e-05
1.66913e-05
1.49781e-05
1.34393e-05
1.20434e-05
1.07656e-05
9.58904e-06
8.50251e-06
7.49914e-06
6.57487e-06
5.72762e-06
4.95658e-06
4.26138e-06
3.64144e-06
3.09535e-06
2.62063e-06
2.21358e-06
1.86943e-06
1.58257e-06
1.34688e-06
1.15607e-06
1.00404e-06
8.85164e-07
7.94296e-07
7.26853e-07
6.78849e-07
6.46898e-07
6.28224e-07
6.20504e-07
6.21443e-07
6.28385e-07
6.38578e-07
6.50439e-07
6.64919e-07
6.84867e-07
7.11301e-07
7.39657e-07
7.61266e-07
7.69538e-07
7.64054e-07
7.49072e-07
7.29273e-07
7.06771e-07
6.81975e-07
6.54259e-07
6.24235e-07
5.89764e-07
5.53635e-07
5.08011e-07
4.70122e-07
4.05592e-07
4.03308e-07
2.95997e-07
4.95912e-05
5.65821e-05
6.31752e-05
6.86077e-05
7.12342e-05
7.00162e-05
6.57401e-05
6.0207e-05
5.37559e-05
4.47685e-05
3.17817e-05
1.63781e-05
1.41872e-05
2.69736e-05
3.56437e-05
3.7956e-05
3.64556e-05
3.42913e-05
3.30008e-05
3.25691e-05
3.25573e-05
3.31394e-05
3.41471e-05
3.52326e-05
3.77155e-05
3.9995e-05
4.11726e-05
4.17134e-05
4.04497e-05
3.63899e-05
3.06087e-05
2.47163e-05
1.96967e-05
1.63007e-05
1.63789e-05
2.08294e-05
2.57831e-05
2.84748e-05
3.05999e-05
3.37184e-05
3.62135e-05
3.59703e-05
3.30775e-05
2.92453e-05
2.57833e-05
2.29585e-05
2.05936e-05
1.85308e-05
1.66946e-05
1.50438e-05
1.35458e-05
1.21738e-05
1.09081e-05
9.73553e-06
8.64763e-06
7.63916e-06
6.70726e-06
5.85083e-06
5.0698e-06
4.36439e-06
3.73443e-06
3.17881e-06
2.69521e-06
2.28007e-06
1.92864e-06
1.63532e-06
1.39394e-06
1.19818e-06
1.04184e-06
9.19178e-07
8.25014e-07
7.54793e-07
7.04521e-07
6.70729e-07
6.50478e-07
6.41221e-07
6.40446e-07
6.45333e-07
6.53046e-07
6.62055e-07
6.73656e-07
6.915e-07
7.17648e-07
7.48161e-07
7.74172e-07
7.87965e-07
7.8768e-07
7.76353e-07
7.57927e-07
7.34436e-07
7.06877e-07
6.75565e-07
6.42056e-07
6.04734e-07
5.66606e-07
5.19566e-07
4.80788e-07
4.15147e-07
4.13165e-07
3.03923e-07
9.87254e-06
1.48728e-05
1.97521e-05
2.38788e-05
2.66911e-05
2.74842e-05
2.57934e-05
2.1239e-05
1.33139e-05
2.37646e-06
1.07196e-05
2.31351e-05
3.21802e-05
3.62914e-05
3.61535e-05
3.39856e-05
3.19092e-05
3.07626e-05
3.03126e-05
3.02037e-05
3.03007e-05
3.07501e-05
3.19204e-05
3.3239e-05
3.52996e-05
3.77935e-05
3.911e-05
3.95428e-05
3.94288e-05
3.79759e-05
3.48503e-05
3.08678e-05
2.72739e-05
2.53338e-05
2.58637e-05
2.78037e-05
2.90281e-05
3.00766e-05
3.27534e-05
3.60758e-05
3.73339e-05
3.54949e-05
3.18647e-05
2.8161e-05
2.50818e-05
2.25527e-05
2.03734e-05
1.84351e-05
1.66887e-05
1.51017e-05
1.36461e-05
1.23004e-05
1.10495e-05
9.88345e-06
8.7959e-06
7.78329e-06
6.84417e-06
5.97857e-06
5.18735e-06
4.47141e-06
3.83105e-06
3.26551e-06
2.77269e-06
2.34912e-06
1.99011e-06
1.69007e-06
1.44281e-06
1.24199e-06
1.08139e-06
9.55263e-07
8.58397e-07
7.86088e-07
7.34123e-07
6.98789e-07
6.76917e-07
6.65795e-07
6.62829e-07
6.65186e-07
6.70047e-07
6.75953e-07
6.84522e-07
7.00193e-07
7.2604e-07
7.58579e-07
7.88498e-07
8.07223e-07
8.11816e-07
8.04248e-07
7.87627e-07
7.63636e-07
7.33586e-07
6.9862e-07
6.61272e-07
6.20585e-07
5.79893e-07
5.30909e-07
4.90742e-07
4.23546e-07
4.21517e-07
3.09525e-07
7.44976e-06
9.34814e-06
1.24123e-05
1.55697e-05
1.80145e-05
1.94838e-05
2.03797e-05
2.18732e-05
2.47287e-05
2.8766e-05
3.26378e-05
3.48463e-05
3.47531e-05
3.29454e-05
3.07075e-05
2.90709e-05
2.82543e-05
2.7922e-05
2.77564e-05
2.76984e-05
2.78409e-05
2.82706e-05
2.92824e-05
3.08062e-05
3.26758e-05
3.53266e-05
3.73993e-05
3.80234e-05
3.78477e-05
3.72345e-05
3.59494e-05
3.40231e-05
3.20234e-05
3.08003e-05
3.04163e-05
3.01642e-05
3.03116e-05
3.23029e-05
3.57669e-05
3.80445e-05
3.72874e-05
3.41275e-05
3.03587e-05
2.70823e-05
2.44169e-05
2.21529e-05
2.01433e-05
1.8327e-05
1.66717e-05
1.51505e-05
1.37402e-05
1.24241e-05
1.1191e-05
1.00336e-05
8.94774e-06
7.93173e-06
6.98564e-06
6.11085e-06
5.30922e-06
4.58242e-06
3.9313e-06
3.35546e-06
2.85305e-06
2.42072e-06
2.05387e-06
1.7469e-06
1.49361e-06
1.28761e-06
1.12264e-06
9.92841e-07
8.92882e-07
8.17977e-07
7.6383e-07
7.26611e-07
7.02993e-07
6.90075e-07
6.85095e-07
6.85082e-07
6.87105e-07
6.89654e-07
6.94544e-07
7.06944e-07
7.31112e-07
7.64581e-07
7.98124e-07
8.22203e-07
8.32561e-07
8.29938e-07
8.16438e-07
7.93157e-07
7.6149e-07
7.23304e-07
6.82179e-07
6.37986e-07
5.94551e-07
5.43517e-07
5.0197e-07
4.33352e-07
4.31496e-07
3.17287e-07
6.0969e-06
8.43398e-06
1.17354e-05
1.55504e-05
1.94057e-05
2.28888e-05
2.57755e-05
2.80719e-05
2.98094e-05
3.0755e-05
3.07533e-05
2.98446e-05
2.84334e-05
2.70993e-05
2.62106e-05
2.57626e-05
2.55461e-05
2.53937e-05
2.52796e-05
2.52757e-05
2.54787e-05
2.5962e-05
2.68213e-05
2.82171e-05
2.99662e-05
3.23529e-05
3.51274e-05
3.68465e-05
3.71072e-05
3.65281e-05
3.55793e-05
3.4393e-05
3.31289e-05
3.20927e-05
3.13975e-05
3.13418e-05
3.28838e-05
3.59682e-05
3.85079e-05
3.84537e-05
3.58273e-05
3.21827e-05
2.88273e-05
2.60877e-05
2.37872e-05
2.17491e-05
1.98985e-05
1.82046e-05
1.66429e-05
1.51904e-05
1.3829e-05
1.2546e-05
1.13335e-05
1.01867e-05
9.10378e-06
8.08495e-06
7.1321e-06
6.24802e-06
5.4357e-06
4.69765e-06
4.03533e-06
3.44875e-06
2.93632e-06
2.49486e-06
2.11983e-06
1.80566e-06
1.54614e-06
1.33483e-06
1.16544e-06
1.03204e-06
9.29247e-07
8.52148e-07
7.96243e-07
7.57463e-07
7.32231e-07
7.17453e-07
7.1024e-07
7.07565e-07
7.06453e-07
7.05371e-07
7.06339e-07
7.15261e-07
7.37559e-07
7.71621e-07
8.08253e-07
8.37189e-07
8.5312e-07
8.55679e-07
8.45882e-07
8.23988e-07
7.91197e-07
7.49927e-07
7.04803e-07
6.56648e-07
6.09914e-07
5.56292e-07
5.12859e-07
4.42382e-07
4.40362e-07
3.23166e-07
4.77586e-06
6.65287e-06
9.08531e-06
1.18847e-05
1.48536e-05
1.77422e-05
2.02724e-05
2.22139e-05
2.34969e-05
2.41324e-05
2.42622e-05
2.40883e-05
2.38147e-05
2.3569e-05
2.33813e-05
2.32311e-05
2.30993e-05
2.29951e-05
2.29579e-05
2.30443e-05
2.33077e-05
2.38213e-05
2.46268e-05
2.58073e-05
2.73638e-05
2.93206e-05
3.19683e-05
3.46924e-05
3.63466e-05
3.66781e-05
3.61535e-05
3.52642e-05
3.43372e-05
3.36762e-05
3.369e-05
3.48486e-05
3.70984e-05
3.90593e-05
3.90555e-05
3.67948e-05
3.34153e-05
3.01518e-05
2.74475e-05
2.51823e-05
2.31714e-05
2.13317e-05
1.96369e-05
1.80677e-05
1.66026e-05
1.52226e-05
1.39139e-05
1.26675e-05
1.14781e-05
1.03436e-05
9.26463e-06
8.2435e-06
7.28401e-06
6.3905e-06
5.56715e-06
4.81741e-06
4.14338e-06
3.54554e-06
3.02262e-06
2.57161e-06
2.18806e-06
1.86644e-06
1.60053e-06
1.38384e-06
1.20999e-06
1.07299e-06
9.67301e-07
8.87844e-07
8.29965e-07
7.89422e-07
7.62451e-07
7.45773e-07
7.36347e-07
7.31019e-07
7.2668e-07
7.21659e-07
7.18027e-07
7.22313e-07
7.41305e-07
7.74878e-07
8.14206e-07
8.48204e-07
8.70363e-07
8.79116e-07
8.74262e-07
8.54999e-07
8.22061e-07
7.78254e-07
7.29253e-07
6.76977e-07
6.26685e-07
5.70263e-07
5.24843e-07
4.52552e-07
4.50528e-07
3.308e-07
4.61117e-06
6.12768e-06
7.98549e-06
1.00421e-05
1.21783e-05
1.42762e-05
1.61878e-05
1.77936e-05
1.90389e-05
1.99374e-05
2.05362e-05
2.08783e-05
2.10157e-05
2.10178e-05
2.0953e-05
2.08718e-05
2.08052e-05
2.07763e-05
2.08142e-05
2.09611e-05
2.12582e-05
2.17659e-05
2.25416e-05
2.35961e-05
2.49586e-05
2.65941e-05
2.86656e-05
3.13199e-05
3.39703e-05
3.5824e-05
3.66734e-05
3.6829e-05
3.67365e-05
3.68432e-05
3.74752e-05
3.85849e-05
3.94193e-05
3.89388e-05
3.68439e-05
3.38462e-05
3.08834e-05
2.83706e-05
2.62381e-05
2.43223e-05
2.25473e-05
2.08965e-05
1.93592e-05
1.79175e-05
1.65523e-05
1.52488e-05
1.39966e-05
1.27897e-05
1.16257e-05
1.05052e-05
9.43108e-06
8.40813e-06
7.44207e-06
6.53887e-06
5.70404e-06
4.94201e-06
4.25564e-06
3.64593e-06
3.11194e-06
2.65088e-06
2.25842e-06
1.92906e-06
1.65654e-06
1.43435e-06
1.25604e-06
1.1155e-06
1.00707e-06
9.25517e-07
8.6597e-07
8.23941e-07
7.95412e-07
7.76884e-07
7.65168e-07
7.57012e-07
7.49208e-07
7.39963e-07
7.31392e-07
7.30632e-07
7.45819e-07
7.78287e-07
8.19695e-07
8.58326e-07
8.86643e-07
9.01961e-07
9.0279e-07
8.87028e-07
8.5465e-07
8.08635e-07
7.55659e-07
6.98855e-07
6.44437e-07
5.84645e-07
5.36701e-07
4.62155e-07
4.59785e-07
3.36825e-07
4.51228e-06
5.7877e-06
7.31665e-06
8.99013e-06
1.0715e-05
1.2404e-05
1.39766e-05
1.53622e-05
1.65103e-05
1.73931e-05
1.80142e-05
1.84038e-05
1.86117e-05
1.86967e-05
1.87133e-05
1.87039e-05
1.86991e-05
1.87235e-05
1.88054e-05
1.89837e-05
1.92969e-05
1.97904e-05
2.05214e-05
2.15014e-05
2.27258e-05
2.41746e-05
2.58273e-05
2.78499e-05
3.02929e-05
3.27651e-05
3.47847e-05
3.61772e-05
3.71076e-05
3.78159e-05
3.8337e-05
3.83949e-05
3.7567e-05
3.57378e-05
3.33181e-05
3.0891e-05
2.87501e-05
2.68627e-05
2.51166e-05
2.34647e-05
2.19075e-05
2.04459e-05
1.90678e-05
1.77558e-05
1.64939e-05
1.52706e-05
1.40784e-05
1.2914e-05
1.17777e-05
1.06725e-05
9.60419e-06
8.57978e-06
7.60707e-06
6.69378e-06
5.84685e-06
5.0718e-06
4.37232e-06
3.75001e-06
3.2043e-06
2.73265e-06
2.33086e-06
1.99345e-06
1.71417e-06
1.48645e-06
1.30374e-06
1.1598e-06
1.04879e-06
9.65254e-07
9.04097e-07
8.60592e-07
8.30494e-07
8.10105e-07
7.96074e-07
7.85021e-07
7.73574e-07
7.59715e-07
7.45441e-07
7.38365e-07
7.4823e-07
7.78407e-07
8.21326e-07
8.64607e-07
8.99576e-07
9.22375e-07
9.30118e-07
9.19173e-07
8.88458e-07
8.40908e-07
7.84155e-07
7.2266e-07
6.63787e-07
6.00308e-07
5.49631e-07
4.72785e-07
4.70175e-07
3.44348e-07
4.34621e-06
5.42112e-06
6.691e-06
8.07665e-06
9.50898e-06
1.09202e-05
1.22455e-05
1.34278e-05
1.44236e-05
1.52139e-05
1.58049e-05
1.62146e-05
1.64705e-05
1.6612e-05
1.66837e-05
1.67237e-05
1.67607e-05
1.6819e-05
1.69273e-05
1.71219e-05
1.74387e-05
1.79153e-05
1.85969e-05
1.95034e-05
2.06221e-05
2.19407e-05
2.3405e-05
2.50003e-05
2.68196e-05