/*--------------------------------*- C++ -*----------------------------------*\
| =========                 |                                                 |
| \\      /  F ield         | OpenFOAM: The Open Source CFD Toolbox           |
|  \\    /   O peration     | Version:  2.1.1                                 |
|   \\  /    A nd           | Web:      www.OpenFOAM.org                      |
|    \\/     M anipulation  |                                                 |
\*---------------------------------------------------------------------------*/
FoamFile
{
    version     2.0;
    format      ascii;
    class       volScalarField;
    location    "0.065";
    object      p;
}
// * * * * * * * * * * * * * * * * * * * * * * * * * * * * * * * * * * * * * //

dimensions      [0 2 -2 0 0 0 0];

internalField   nonuniform List<scalar> 
6820
(
8.88206
-8.95165
-11.9548
-12.1353
-12.2993
-12.2145
-12.1433
-12.138
-12.1637
-12.2052
-12.2535
-12.3032
-12.3513
-12.3962
-12.4369
-12.4724
-12.5018
-12.5243
-12.5389
-12.5447
-12.5406
-12.5256
-12.4986
-12.4584
-12.4037
-12.3335
-12.2466
-12.1419
-12.0191
-11.8768
-11.7192
-11.5378
-11.3628
2.20011
-8.77128
-11.6444
-11.9379
-12.1816
-12.1927
-12.158
-12.1637
-12.1912
-12.2298
-12.2742
-12.3204
-12.3656
-12.4084
-12.4475
-12.4819
-12.5107
-12.5328
-12.5474
-12.5533
-12.5496
-12.5351
-12.5087
-12.4692
-12.4155
-12.3463
-12.2606
-12.1571
-12.0354
-11.8944
-11.7365
-11.5549
-11.3699
-0.515848
-7.34243
-10.6257
-11.377
-11.8364
-12.0222
-12.0663
-12.105
-12.1521
-12.2032
-12.2567
-12.3098
-12.3604
-12.4074
-12.4497
-12.4866
-12.5174
-12.5413
-12.5575
-12.5651
-12.5633
-12.5509
-12.5271
-12.4908
-12.4408
-12.3762
-12.2959
-12.1993
-12.0858
-11.955
-11.8082
-11.6443
-11.4668
-2.50261
-7.11675
-10.2061
-11.0592
-11.5228
-11.7881
-11.9027
-11.986
-12.0647
-12.1371
-12.2043
-12.2672
-12.3256
-12.3792
-12.4275
-12.47
-12.5062
-12.5356
-12.5574
-12.5711
-12.5758
-12.5708
-12.5553
-12.5285
-12.4898
-12.4385
-12.3742
-12.2968
-12.2066
-12.1052
-11.9947
-11.883
-11.7746
-4.13983
-7.21909
-9.81664
-10.7142
-11.214
-11.5591
-11.7445
-11.8682
-11.9725
-12.0628
-12.1432
-12.2167
-12.2839
-12.3449
-12.4
-12.4492
-12.4921
-12.5283
-12.5575
-12.5793
-12.5931
-12.5987
-12.5955
-12.5834
-12.5622
-12.5319
-12.4931
-12.447
-12.3955
-12.3426
-12.2942
-12.265
-12.2695
-5.36447
-7.40211
-9.56815
-10.5067
-11.0259
-11.3986
-11.6195
-11.7668
-11.8881
-11.9923
-12.0838
-12.1662
-12.2414
-12.3098
-12.3718
-12.4276
-12.4773
-12.5209
-12.5581
-12.589
-12.6133
-12.6312
-12.6427
-12.648
-12.6478
-12.6432
-12.6357
-12.6279
-12.6239
-12.6301
-12.6563
-12.72
-12.8479
-6.31745
-7.69089
-9.45347
-10.3551
-10.8624
-11.2438
-11.4955
-11.669
-11.8093
-11.9282
-12.0308
-12.1222
-12.2047
-12.2797
-12.3479
-12.4098
-12.4658
-12.5161
-12.5608
-12.6
-12.6339
-12.6628
-12.6874
-12.7083
-12.7269
-12.7448
-12.7647
-12.7905
-12.8275
-12.884
-12.9721
-13.1094
-13.3251
-7.06602
-7.99971
-9.40521
-10.2426
-10.7387
-11.1223
-11.3934
-11.585
-11.7384
-11.868
-11.9798
-12.0788
-12.1684
-12.2499
-12.3245
-12.3929
-12.4555
-12.5128
-12.5652
-12.6129
-12.6565
-12.6966
-12.7342
-12.7704
-12.807
-12.8463
-12.8916
-12.9474
-13.02
-13.118
-13.254
-13.4439
-13.7138
-7.66113
-8.30629
-9.41857
-10.1761
-10.6502
-11.0227
-11.301
-11.5051
-11.6696
-11.8093
-11.9302
-12.0372
-12.1339
-12.2221
-12.3031
-12.3778
-12.447
-12.5113
-12.5712
-12.6273
-12.6804
-12.7315
-12.7816
-12.8323
-12.8858
-12.9448
-13.013
-13.0953
-13.1983
-13.3303
-13.5033
-13.7307
-14.0339
-8.14065
-8.59502
-9.4701
-10.1393
-10.585
-10.9423
-11.2222
-11.4351
-11.6083
-11.7561
-11.8844
-11.9983
-12.1014
-12.1958
-12.2829
-12.3638
-12.4395
-12.5107
-12.5782
-12.6427
-12.7052
-12.7669
-12.8291
-12.8937
-12.9631
-13.0402
-13.1289
-13.2342
-13.3624
-13.5214
-13.7215
-13.9736
-14.2944
-8.53149
-8.85822
-9.54603
-10.1286
-10.5423
-10.8809
-11.1564
-11.3731
-11.5519
-11.7058
-11.8406
-11.9609
-12.0701
-12.1706
-12.2638
-12.351
-12.4332
-12.5113
-12.5862
-12.6588
-12.7304
-12.8022
-12.8758
-12.9532
-13.0369
-13.13
-13.2364
-13.3607
-13.5088
-13.6877
-13.906
-14.1721
-14.4984
-8.85329
-9.09355
-9.63548
-10.1369
-10.5162
-10.8341
-11.1013
-11.3188
-11.5012
-11.66
-11.8002
-11.9262
-12.0411
-12.1472
-12.2462
-12.3394
-12.4278
-12.5126
-12.5947
-12.6752
-12.7554
-12.8367
-12.9208
-13.0099
-13.1063
-13.2132
-13.3342
-13.4737
-13.6368
-13.8294
-14.0584
-14.33
-14.653
-9.1204
-9.30107
-9.73033
-10.159
-10.5037
-10.8003
-11.0568
-11.2722
-11.4562
-11.6182
-11.7628
-11.8936
-12.0136
-12.1251
-12.2297
-12.3286
-12.4232
-12.5144
-12.6034
-12.6914
-12.7797
-12.8698
-12.9635
-13.0628
-13.1702
-13.2885
-13.4212
-13.5721
-13.7456
-13.9464
-14.1797
-14.45
-14.7633
-9.34338
-9.48223
-9.82496
-10.1902
-10.5014
-10.7766
-11.021
-11.2322
-11.4163
-11.5803
-11.7283
-11.8634
-11.9881
-12.1046
-12.2145
-12.3189
-12.4193
-12.5166
-12.6121
-12.7071
-12.8028
-12.9008
-13.0029
-13.1111
-13.2276
-13.3551
-13.4967
-13.6555
-13.8352
-14.0394
-14.272
-14.536
-14.8351
-9.53005
-9.63903
-9.91543
-10.2267
-10.5064
-10.761
-10.9928
-11.1984
-11.3812
-11.5463
-11.6969
-11.8355
-11.9644
-12.0855
-12.2003
-12.3099
-12.4157
-12.5189
-12.6205
-12.7218
-12.8243
-12.9293
-13.0386
-13.1542
-13.278
-13.4125
-13.5601
-13.7237
-13.906
-14.1098
-14.3378
-14.5917
-14.8736
-9.68628
-9.77353
-9.99911
-10.2653
-10.5162
-10.7514
-10.9706
-11.1698
-11.3504
-11.5157
-11.6682
-11.8098
-11.9425
-12.0678
-12.1871
-12.3017
-12.4126
-12.521
-12.6282
-12.7353
-12.8437
-12.9547
-13.0701
-13.1915
-13.3208
-13.4601
-13.6114
-13.777
-13.9589
-14.1591
-14.3794
-14.6205
-14.8835
-9.81644
-9.88767
-10.0743
-10.3032
-10.5285
-10.7458
-10.953
-11.1456
-11.3233
-11.4883
-11.6421
-11.7863
-11.9223
-12.0514
-12.1749
-12.294
-12.4096
-12.5229
-12.6351
-12.7473
-12.8608
-12.9769
-13.0971
-13.2229
-13.3561
-13.4982
-13.651
-13.8162
-13.9952
-14.1895
-14.3999
-14.6266
-14.8698
-9.92385
-9.98309
-10.1398
-10.3383
-10.5414
-10.7427
-10.9386
-11.1246
-11.2993
-11.4635
-11.6183
-11.7646
-11.9036
-12.0362
-12.1636
-12.2867
-12.4066
-12.5243
-12.6409
-12.7575
-12.8752
-12.9953
-13.1192
-13.2481
-13.3834
-13.5266
-13.679
-13.8417
-14.016
-14.2024
-14.4014
-14.6128
-14.8362
-10.0109
-10.0612
-10.195
-10.369
-10.5531
-10.7403
-10.9262
-11.106
-11.2776
-11.4409
-11.5965
-11.7447
-11.8863
-12.0221
-12.153
-12.2799
-12.4037
-12.5253
-12.6457
-12.766
-12.8871
-13.0103
-13.1367
-13.2674
-13.4036
-13.5464
-13.6967
-13.8555
-14.0234
-14.2007
-14.3875
-14.5832
-14.7871
-10.0795
-10.1229
-10.2392
-10.3938
-10.5621
-10.7373
-10.9144
-11.0887
-11.2574
-11.42
-11.5762
-11.7261
-11.8701
-12.0089
-12.143
-12.2733
-12.4004
-12.5254
-12.649
-12.7722
-12.896
-13.0213
-13.1491
-13.2804
-13.4162
-13.5572
-13.7041
-13.8577
-14.0181
-14.1855
-14.3595
-14.5396
-14.7247
-10.1308
-10.1691
-10.2721
-10.4115
-10.567
-10.7323
-10.9021
-11.0718
-11.2382
-11.4002
-11.5572
-11.7088
-11.8552
-11.9967
-12.1338
-12.2672
-12.3974
-12.5253
-12.6516
-12.7772
-12.9028
-13.0294
-13.1578
-13.2887
-13.423
-13.5612
-13.7038
-13.8511
-14.0034
-14.1604
-14.3216
-14.4865
-14.6538
-10.1655
-10.2
-10.2931
-10.421
-10.5666
-10.724
-10.8882
-11.0543
-11.2191
-11.3809
-11.5388
-11.6922
-11.8408
-11.9849
-12.1248
-12.2609
-12.3937
-12.524
-12.6524
-12.7796
-12.9064
-13.0334
-13.1614
-13.291
-13.4228
-13.5573
-13.6947
-13.8352
-13.9787
-14.1251
-14.2738
-14.424
-14.5748
-10.184
-10.2158
-10.3019
-10.4214
-10.5597
-10.7114
-10.8716
-11.0354
-11.1995
-11.3619
-11.5212
-11.6766
-11.8277
-11.9745
-12.117
-12.2557
-12.391
-12.5234
-12.6535
-12.7819
-12.9092
-13.036
-13.163
-13.2907
-13.4193
-13.5494
-13.6811
-13.8143
-13.9491
-14.085
-14.2214
-14.3578
-14.4931
-10.1863
-10.2163
-10.2977
-10.4116
-10.5451
-10.6932
-10.8512
-11.0141
-11.1784
-11.3419
-11.5031
-11.6607
-11.8144
-11.9637
-12.1088
-12.2498
-12.387
-12.521
-12.6522
-12.7811
-12.9083
-13.0343
-13.1595
-13.2845
-13.4094
-13.5345
-13.66
-13.7857
-13.9115
-14.0371
-14.1619
-14.2852
-14.4064
-10.172
-10.201
-10.2797
-10.3907
-10.5218
-10.6687
-10.8264
-10.9901
-11.1561
-11.3219
-11.4858
-11.6465
-11.8032
-11.9555
-12.1033
-12.2467
-12.386
-12.5214
-12.6535
-12.7827
-12.9094
-13.0341
-13.1572
-13.279
-13.3998
-13.5197
-13.6388
-13.757
-13.874
-13.9896
-14.1034
-14.2146
-14.3226
-10.14
-10.1688
-10.2468
-10.3573
-10.4885
-10.6362
-10.7955
-10.9614
-11.1302
-11.2992
-11.4664
-11.6303
-11.7902
-11.9454
-12.0958
-12.2413
-12.3822
-12.5187
-12.6512
-12.7801
-12.9058
-13.0287
-13.1491
-13.2673
-13.3835
-13.4978
-13.6103
-13.7209
-13.8294
-13.9355
-14.0388
-14.1388
-14.2351
-10.0893
-10.1185
-10.1978
-10.3104
-10.4445
-10.5958
-10.7594
-10.93
-11.1038
-11.2778
-11.4498
-11.6184
-11.7825
-11.9414
-12.0948
-12.2429
-12.3856
-12.5232
-12.656
-12.7845
-12.9089
-13.0297
-13.1472
-13.2615
-13.373
-13.4817
-13.5877
-13.6908
-13.791
-13.888
-13.9815
-14.071
-14.1563
-10.0178
-10.0482
-10.1308
-10.2478
-10.3871
-10.544
-10.7136
-10.8903
-11.07
-11.2498
-11.4272
-11.6007
-11.7691
-11.9318
-12.0883
-12.2387
-12.383
-12.5214
-12.6542
-12.7819
-12.9047
-13.0231
-13.1372
-13.2475
-13.354
-13.4569
-13.5563
-13.6522
-13.7443
-13.8327
-13.917
-13.9971
-14.0726
-9.92302
-9.95561
-10.0442
-10.1695
-10.318
-10.485
-10.6648
-10.8515
-11.0407
-11.2291
-11.4144
-11.5946
-11.7688
-11.9362
-12.0964
-12.2495
-12.3955
-12.5347
-12.6675
-12.7942
-12.9152
-13.0309
-13.1416
-13.2475
-13.3489
-13.446
-13.5389
-13.6275
-13.7119
-13.792
-13.8676
-13.9386
-14.0046
-9.8014
-9.83692
-9.93351
-10.0691
-10.2286
-10.4068
-10.5979
-10.7955
-10.9949
-11.1928
-11.3866
-11.5743
-11.7549
-11.9275
-12.0919
-12.248
-12.3959
-12.536
-12.6687
-12.7943
-12.9134
-13.0262
-13.1332
-13.2347
-13.331
-13.4222
-13.5087
-13.5903
-13.6673
-13.7396
-13.8072
-13.87
-13.928
-9.64874
-9.68961
-9.80005
-9.95378
-10.1326
-10.3303
-10.54
-10.7546
-10.9691
-11.1799
-11.3847
-11.5815
-11.7694
-11.9478
-12.1164
-12.2754
-12.4251
-12.5657
-12.6979
-12.822
-12.9386
-13.0482
-13.1512
-13.2479
-13.3388
-13.424
-13.5039
-13.5785
-13.648
-13.7125
-13.772
-13.8266
-13.8761
-9.45753
-9.50316
-9.62764
-9.79869
-9.99535
-10.2117
-10.4405
-10.6736
-10.9052
-11.1316
-11.35
-11.5586
-11.7561
-11.9421
-12.1166
-12.2797
-12.4319
-12.5736
-12.7056
-12.8284
-12.9427
-13.0491
-13.148
-13.24
-13.3255
-13.4048
-13.4783
-13.5462
-13.6088
-13.6661
-13.7184
-13.7659
-13.8085
-9.22259
-9.28289
-9.44022
-9.64942
-9.88197
-10.1309
-10.3882
-10.6453
-10.8969
-11.1399
-11.3719
-11.5913
-11.7973
-11.9898
-12.1688
-12.3348
-12.4884
-12.6303
-12.7611
-12.8818
-12.9929
-13.0952
-13.1893
-13.2758
-13.3553
-13.428
-13.4945
-13.555
-13.6099
-13.6594
-13.7037
-13.743
-13.7774
-8.92165
-8.98437
-9.1617
-9.39761
-9.66085
-9.94487
-10.2381
-10.5288
-10.8107
-11.0798
-11.3337
-11.5708
-11.7907
-11.9936
-12.1801
-12.351
-12.5074
-12.6501
-12.7804
-12.8991
-13.0073
-13.1058
-13.1954
-13.2767
-13.3505
-13.4172
-13.4773
-13.5312
-13.5793
-13.6219
-13.6594
-13.6922
-13.7205
-8.56508
-8.68314
-8.94605
-9.25322
-9.56763
-9.8923
-10.2185
-10.5357
-10.8393
-11.1267
-11.3958
-11.6452
-11.875
-12.0853
-12.2769
-12.4507
-12.6081
-12.7501
-12.8781
-12.9933
-13.0968
-13.1896
-13.2727
-13.347
-13.4131
-13.4718
-13.5235
-13.5688
-13.6081
-13.6418
-13.6704
-13.694
-13.7134
-8.03999
-8.13185
-8.43242
-8.80739
-9.20269
-9.61097
-10.0117
-10.3911
-10.7454
-11.0728
-11.3721
-11.6439
-11.8896
-12.1107
-12.3092
-12.487
-12.6458
-12.7875
-12.9138
-13.0261
-13.1258
-13.2143
-13.2924
-13.3613
-13.4217
-13.4743
-13.5198
-13.5586
-13.5912
-13.6181
-13.6396
-13.6565
-13.6695
-7.54872
-7.8719
-8.34201
-8.76433
-9.17899
-9.61322
-10.0387
-10.442
-10.8215
-11.1734
-11.4948
-11.7852
-12.0454
-12.277
-12.4817
-12.6621
-12.8202
-12.9586
-13.0792
-13.1842
-13.2753
-13.3541
-13.4219
-13.48
-13.5295
-13.571
-13.6053
-13.6328
-13.654
-13.6692
-13.6786
-13.6829
-13.6822
-6.24898
-6.57173
-7.34713
-8.05027
-8.6913
-9.30338
-9.85442
-10.3442
-10.7829
-11.1744
-11.522
-11.83
-12.1022
-12.3419
-12.5522
-12.7358
-12.8956
-13.034
-13.1532
-13.2556
-13.343
-13.4171
-13.4796
-13.5317
-13.5747
-13.6093
-13.6362
-13.656
-13.6688
-13.6746
-13.6725
-13.6639
-13.6439
-6.23883
-6.98484
-7.59217
-8.06326
-8.66828
-9.30772
-9.9049
-10.4623
-10.9738
-11.4287
-11.8261
-12.1694
-12.463
-12.7115
-12.9203
-13.0946
-13.2391
-13.3581
-13.4555
-13.5347
-13.5985
-13.6493
-13.6892
-13.7199
-13.7428
-13.759
-13.7693
-13.7741
-13.7733
-13.7659
-13.7492
-13.72
-13.6645
0.00919258
-4.59942
-6.38622
-7.24077
-8.24775
-9.12959
-9.83676
-10.4521
-10.9918
-11.4564
-11.8549
-12.1954
-12.4843
-12.7278
-12.9319
-13.1019
-13.2426
-13.3583
-13.4528
-13.5293
-13.5907
-13.6394
-13.6774
-13.7064
-13.728
-13.7432
-13.7531
-13.7584
-13.7601
-13.7578
-13.7541
-13.7439
-13.7389
-11.074
-10.8804
-12.6037
-15.8503
-20.6316
-26.498
-32.57
-37.8772
-41.7607
-43.9532
-44.3728
-43.0665
-40.3697
-36.6699
-32.0327
-26.2814
-19.5083
-12.4544
-6.16304
-1.29622
1.98637
3.77799
4.06865
2.74103
-0.312837
-5.25
-11.9256
-19.7956
-28.1246
-36.2795
-43.8446
-50.5052
-55.9044
-59.6066
-61.1905
-60.3695
-57.1396
-51.8709
-45.215
-37.9452
-30.7431
-24.0969
-18.3102
-13.5069
-9.65026
-6.61279
-4.24933
-2.43124
-1.05156
-0.021615
0.731858
1.26878
1.63763
1.87727
2.01871
2.08656
2.10022
2.07492
2.02252
1.9522
1.87099
1.78419
1.6957
1.60829
1.52382
1.44339
1.36753
1.29632
1.22954
1.16681
1.10771
1.05181
0.998781
0.948399
0.900513
0.85503
0.811865
0.7709
0.731957
0.6948
0.659154
0.624743
0.591322
0.558693
0.526697
0.495174
0.46396
0.432872
0.401694
0.370239
0.338267
0.305741
0.272304
0.23845
0.202935
0.168406
0.129138
0.09756
0.0470575
0.0353691
-11.0791
-10.8585
-12.5623
-15.792
-20.2902
-25.6919
-31.2733
-36.2015
-39.8557
-41.9594
-42.4531
-41.3645
-38.8552
-35.1807
-30.4791
-24.8075
-18.4514
-12.0832
-6.46893
-2.08167
0.930823
2.58413
2.88363
1.69421
-1.07973
-5.52548
-11.5761
-18.8195
-26.6276
-34.3851
-41.6264
-47.9886
-53.1072
-56.577
-58.0294
-57.2068
-54.1334
-49.1857
-42.9884
-36.2391
-29.5399
-23.338
-17.9186
-13.392
-9.72162
-6.79706
-4.49519
-2.70528
-1.33245
-0.295984
0.472061
1.028
1.41792
1.67919
1.8419
1.93009
1.96285
1.95526
1.91909
1.86352
1.79558
1.72059
1.64251
1.56416
1.48749
1.41372
1.34347
1.27696
1.21409
1.1546
1.09818
1.04449
0.993292
0.944407
0.897735
0.853217
0.810794
0.77038
0.731821
0.694917
0.659424
0.625098
0.591724
0.559119
0.527133
0.495614
0.464393
0.433298
0.402107
0.370636
0.338641
0.306086
0.272611
0.238717
0.203153
0.168582
0.12927
0.0976312
0.0471786
0.0352211
-11.3047
-11.4517
-13.0375
-16.0277
-20.2438
-25.2243
-30.287
-34.7478
-38.1207
-40.1602
-40.6716
-39.5987
-37.065
-33.3381
-28.6637
-23.2607
-17.4711
-11.8142
-6.82923
-2.88002
-0.120794
1.40213
1.68249
0.618217
-1.89483
-5.90454
-11.3633
-17.9565
-25.1656
-32.434
-39.2811
-45.3054
-50.1292
-53.3654
-54.6896
-53.881
-50.9999
-46.4227
-40.7231
-34.5115
-28.3225
-22.5715
-17.5226
-13.2715
-9.78546
-6.97365
-4.73493
-2.97545
-1.61167
-0.570524
0.210674
0.784617
1.19498
1.47754
1.66139
1.76997
1.82199
1.83233
1.81266
1.77211
1.71771
1.6548
1.58737
1.51833
1.44968
1.38275
1.31827
1.2566
1.19775
1.1416
1.08795
1.03657
0.987286
0.93998
0.894596
0.851107
0.809478
0.769653
0.731507
0.694875
0.659548
0.625318
0.591997
0.559424
0.52746
0.495962
0.464763
0.433685
0.402503
0.371033
0.339028
0.306455
0.272951
0.239025
0.203419
0.168807
0.129461
0.0977548
0.0473727
0.0351052
-11.7655
-12.1488
-13.7249
-16.5593
-20.4213
-24.9372
-29.5244
-33.575
-36.6338
-38.3835
-38.6577
-37.412
-34.8095
-31.1459
-26.7231
-21.7974
-16.6532
-11.6653
-7.23832
-3.6835
-1.16545
0.236762
0.49081
-0.468716
-2.74138
-6.35596
-11.2603
-17.2084
-23.7764
-30.4806
-36.8606
-42.4981
-47.0053
-50.0031
-51.2102
-50.4502
-47.813
-43.652
-38.4686
-32.7939
-27.1132
-21.8128
-17.1303
-13.1477
-9.84128
-7.14139
-4.96748
-3.24088
-1.8885
-0.84462
-0.0517753
0.539086
0.969161
1.2726
1.47742
1.60637
1.67777
1.70623
1.7033
1.67804
1.63744
1.58687
1.53036
1.47087
1.41047
1.3506
1.29211
1.23545
1.1808
1.12815
1.07739
1.0284
0.981092
0.935403
0.891329
0.848881
0.808061
0.768839
0.731125
0.694786
0.659648
0.625533
0.592281
0.559754
0.527818
0.496339
0.465155
0.434087
0.402909
0.371437
0.33942
0.306826
0.273289
0.239324
0.203671
0.169008
0.129627
0.0978345
0.0475384
0.0349175
-12.4215
-12.9947
-14.4911
-17.0435
-20.4777
-24.4649
-28.5021
-32.0345
-34.6054
-35.9686
-36.0011
-34.6879
-32.2086
-28.8535
-24.892
-20.5359
-16.0103
-11.6135
-7.68063
-4.48858
-2.2043
-0.919685
-0.687535
-1.55579
-3.60372
-6.85328
-11.2465
-16.5809
-22.5058
-28.6037
-34.4543
-39.6513
-43.8112
-46.5684
-47.681
-47.0128
-44.6614
-40.9336
-36.2586
-31.1083
-25.9293
-21.0728
-16.7459
-13.0217
-9.88946
-7.30056
-5.19292
-3.50139
-2.16261
-1.11791
-0.314959
0.291685
0.740709
1.06456
1.29013
1.43942
1.53028
1.57704
1.59108
1.58135
1.55482
1.51685
1.4715
1.42178
1.36985
1.31723
1.26489
1.2134
1.16307
1.11401
1.06624
1.01972
0.974453
0.930446
0.88774
0.846386
0.806417
0.767833
0.730578
0.694551
0.659615
0.625623
0.592446
0.559966
0.528067
0.496625
0.465477
0.434442
0.403291
0.371835
0.33982
0.307217
0.273655
0.239656
0.203964
0.169251
0.129844
0.0979577
0.0477668
0.034754
-13.1385
-13.8257
-15.2096
-17.4087
-20.3043
-23.6359
-27.0005
-29.9177
-32.0165
-33.087
-33.0257
-31.8445
-29.6911
-26.7818
-23.3242
-19.502
-15.5198
-11.6391
-8.14782
-5.29118
-3.2303
-2.06181
-1.84692
-2.63233
-4.47231
-7.38218
-11.3055
-16.0693
-21.3782
-26.8685
-32.1619
-36.8828
-40.6718
-43.1951
-44.2391
-43.6879
-41.6275
-38.3144
-34.1222
-29.479
-24.7896
-20.3615
-16.3727
-12.894
-9.93
-7.451
-5.41091
-3.75656
-2.43354
-1.38996
-0.57847
0.0427766
0.509931
0.853692
1.09974
1.2693
1.37968
1.44489
1.47609
1.48213
1.46992
1.4448
1.41085
1.37113
1.32789
1.28272
1.23671
1.19057
1.14471
1.09938
1.0547
1.01074
0.967581
0.925301
0.883994
0.843755
0.804653
0.766725
0.729947
0.694253
0.659538
0.625689
0.592604
0.560187
0.528333
0.496927
0.465813
0.434809
0.403683
0.372243
0.340231
0.307616
0.274028
0.23999
0.204252
0.16948
0.130045
0.0980462
0.0479742
0.0345263
-13.707
-14.4461
-15.7198
-17.6039
-20.0054
-22.721
-25.4431
-27.8216
-29.5616
-30.4461
-30.3925
-29.3994
-27.5612
-25.0414
-22.0149
-18.652
-15.1434
-11.7196
-8.62727
-6.08067
-4.23077
-3.17584
-2.97851
-3.6859
-5.33648
-7.93317
-11.4234
-15.6587
-20.3899
-25.3004
-30.0497
-34.2962
-37.7154
-40.0129
-40.996
-40.5529
-38.7533
-35.8186
-32.0827
-27.9286
-23.709
-19.6845
-16.0119
-12.765
-9.96318
-7.59295
-5.62148
-4.00619
-2.701
-1.66043
-0.841969
-0.207327
0.277104
0.640221
0.906454
1.09616
1.2261
1.30988
1.35844
1.38048
1.38282
1.37079
1.34848
1.31899
1.28463
1.24709
1.20759
1.16693
1.12566
1.08415
1.04265
1.00132
0.960329
0.919828
0.879966
0.840882
0.802684
0.76544
0.729163
0.693819
0.659338
0.625639
0.59265
0.560297
0.528495
0.497141
0.46608
0.435127
0.404047
0.372641
0.340647
0.308032
0.274426
0.240353
0.204576
0.169745
0.13029
0.0981723
0.0482376
0.0343178
-14.1455
-14.8959
-16.0635
-17.6907
-19.7023
-21.938
-24.1666
-26.1232
-27.5531
-28.271
-28.2009
-27.3362
-25.7437
-23.5482
-20.8954
-17.9394
-14.8537
-11.8396
-9.10809
-6.84627
-5.1937
-4.24727
-4.06974
-4.70451
-6.18255
-8.49513
-11.5897
-15.3382
-19.5305
-23.8954
-28.131
-31.9282
-34.9959
-37.071
-37.9797
-37.6183
-36.0478
-33.466
-30.1668
-26.4786
-22.6969
-19.0438
-15.6633
-12.6347
-9.98949
-7.7267
-5.82465
-4.25011
-2.96469
-1.92898
-1.10512
-0.458309
0.0425172
0.424409
0.710493
0.920222
1.06972
1.17219
1.23828
1.27652
1.29364
1.29493
1.28448
1.26542
1.24014
1.21043
1.17758
1.14255
1.10601
1.06845
1.03021
0.991594
0.952832
0.914154
0.875768
0.837862
0.800586
0.764045
0.728286
0.69331
0.659081
0.62555
0.592674
0.560398
0.528656
0.497355
0.466348
0.435449
0.404417
0.373049
0.341077
0.308461
0.274836
0.240725
0.204904
0.170005
0.130527
0.0982712
0.0484862
0.0340511
-14.4903
-15.2271
-16.2912
-17.7028
-19.3999
-21.2547
-23.0848
-24.6768
-25.8331
-26.4049
-26.3182
-25.5594
-24.1737
-22.2575
-19.9341
-17.3413
-14.634
-11.9867
-9.58056
-7.57924
-6.11033
-5.26643
-5.10953
-5.67825
-6.99825
-9.05485
-11.7932
-15.0996
-18.7947
-22.6477
-26.3967
-29.7678
-32.4989
-34.3527
-35.1762
-34.8846
-33.532
-31.2886
-28.4011
-25.1409
-21.7549
-18.4379
-15.3265
-12.5037
-10.0096
-7.85274
-6.02058
-4.48827
-3.22444
-2.19537
-1.36765
-0.709885
-0.193564
0.206497
0.512076
0.741665
0.910716
1.03196
1.11574
1.17038
1.20251
1.21733
1.21895
1.21053
1.19452
1.17279
1.14675
1.11749
1.08578
1.05225
1.01736
0.981503
0.94502
0.908205
0.871331
0.834635
0.798307
0.762491
0.727269
0.692676
0.65871
0.625354
0.592592
0.560395
0.528721
0.497487
0.46655
0.435723
0.40476
0.373447
0.341511
0.308908
0.275272
0.241126
0.205267
0.170298
0.130806
0.098404
0.0487862
0.0338001
-14.7563
-15.4617
-16.4238
-17.6476
-19.0801
-20.6194
-22.1201
-23.4162
-24.3514
-24.8013
-24.6965
-24.0213
-22.809
-21.1362
-19.1059
-16.8383
-14.4693
-12.1504
-10.0376
-8.27388
-6.97488
-6.22719
-6.09051
-6.59954
-7.77496
-9.60007
-12.0199
-14.9311
-18.1771
-21.5594
-24.8523
-27.8183
-30.2261
-31.8696
-32.6154
-32.3944
-31.2487
-29.3162
-26.7968
-23.914
-20.8782
-17.8643
-15.0012
-12.373
-10.0245
-7.97162
-6.20955
-4.72072
-3.48015
-2.45939
-1.62931
-0.961799
-0.430887
-0.0132728
0.31143
0.560704
0.74928
0.889378
0.990999
1.06224
1.10957
1.13814
1.15203
1.15444
1.14786
1.13427
1.11519
1.09181
1.06504
1.03563
1.00416
0.971139
0.936981
0.902066
0.86673
0.831263
0.7959
0.760825
0.726156
0.691962
0.658275
0.625108
0.592475
0.560369
0.528768
0.497603
0.46674
0.43599
0.405102
0.373853
0.34196
0.309372
0.275726
0.241542
0.205639
0.170591
0.131082
0.0985147
0.0490758
0.0334949
-14.9526
-15.6163
-16.4804
-17.5404
-18.7503
-20.0282
-21.2594
-22.3127
-23.0621
-23.406
-23.285
-22.6826
-21.6225
-20.1643
-18.3941
-16.4158
-14.3482
-12.3226
-10.4734
-8.92556
-7.78266
-7.12447
-7.00725
-7.46225
-8.50607
-10.1213
-12.2559
-14.8158
-17.6633
-20.6253
-23.5062
-26.1014
-28.213
-29.6667
-30.3433
-30.1827
-29.2147
-27.5476
-25.3429
-22.7865
-20.0604
-17.321
-14.6881
-12.2435
-10.0351
-8.08404
-6.39195
-4.94762
-3.73179
-2.72093
-1.88992
-1.21384
-0.66923
-0.234678
0.108775
0.377555
0.585625
0.744653
0.864256
0.952266
1.015
1.05752
1.08387
1.09728
1.1003
1.095
1.08299
1.06559
1.04385
1.01864
0.99065
0.960498
0.928702
0.895716
0.861942
0.827724
0.793345
0.759026
0.724922
0.691138
0.657737
0.624765
0.592261
0.560248
0.528727
0.497642
0.466867
0.436212
0.405418
0.374251
0.342417
0.309856
0.276208
0.24199
0.206047
0.170919
0.131398
0.0986586
0.0494153
0.0332038
-15.0902
-15.7061
-16.4777
-17.3944
-18.4164
-19.4774
-20.4863
-21.3392
-21.9355
-22.193
-22.0604
-21.5212
-20.5922
-19.3215
-17.7808
-16.0593
-14.2602
-12.4963
-10.8837
-9.53099
-8.53057
-7.95488
-7.85588
-8.26202
-9.18635
-10.6117
-12.4899
-14.7367
-17.2312
-19.8226
-22.3407
-24.609
-26.4582
-27.7398
-28.3472
-28.2284
-27.4033
-25.9564
-24.0189
-21.747
-19.297
-16.8074
-14.3879
-12.1166
-10.0425
-8.19076
-6.56828
-5.16923
-3.97948
-2.97997
-2.14937
-1.46586
-0.908406
-0.457512
-0.0956737
0.19244
0.419974
0.598007
0.73573
0.840688
0.919012
0.975667
1.01466
1.03922
1.05199
1.05509
1.05026
1.03894
1.02231
1.00135
0.97689
0.94965
0.920244
0.889209
0.857013
0.824056
0.790671
0.757118
0.723593
0.69023
0.657129
0.624364
0.592001
0.56009
0.528653
0.497652
0.466971
0.436417
0.405729
0.374655
0.342889
0.310361
0.276712
0.242456
0.206469
0.171251
0.131714
0.0987825
0.0497462
0.0328598
-15.1774
-15.743
-16.4282
-17.2197
-18.0827
-18.9633
-19.7891
-20.4774
-20.9479
-21.1341
-20.9929
-20.509
-19.6952
-18.5896
-17.252
-15.7584
-14.1974
-12.6664
-11.2651
-10.088
-9.21678
-8.71646
-8.63439
-8.9962
-9.81225
-11.0662
-12.7138
-14.6805
-16.8608
-19.1236
-21.3214
-23.3015
-24.9165
-26.0403
-26.5794
-26.4881
-25.7784
-24.5165
-22.8095
-20.7879
-18.5854
-16.3234
-14.1015
-11.9932
-10.0477
-8.29267
-6.73916
-5.38596
-4.22342
-3.23658
-2.40764
-1.71776
-1.14827
-0.681598
-0.301712
0.00557953
0.252564
0.449682
0.605667
0.727744
0.821842
0.892805
0.944598
0.980469
1.0031
1.01471
1.01715
1.01197
1.0005
0.983837
0.962944
0.938642
0.911643
0.882571
0.851963
0.820277
0.787893
0.755114
0.722171
0.689236
0.656436
0.623878
0.591655
0.559846
0.528497
0.497589
0.467013
0.436579
0.406014
0.375053
0.343374
0.310892
0.277251
0.24296
0.206932
0.171621
0.132075
0.0989421
0.0501289
0.0325308
-15.2223
-15.7371
-16.3428
-17.0249
-17.7531
-18.4835
-19.1582
-19.7115
-20.0793
-20.208
-20.0622
-19.6282
-18.9153
-17.9545
-16.7955
-15.503
-14.1528
-12.8283
-11.6153
-10.5955
-9.84059
-9.40849
-9.34171
-9.66341
-10.3816
-11.4811
-12.9219
-14.6381
-16.538
-18.5079
-20.4203
-22.1433
-23.549
-24.5298
-25.0039
-24.9304
-24.3156
-23.2113
-21.7047
-19.9041
-17.9234
-15.8688
-13.8296
-11.8747
-10.0519
-8.39075
-6.90537
-5.59835
-4.46396
-3.49095
-2.66482
-1.96952
-1.38875
-0.906795
-0.509154
-0.182803
0.0836422
0.299944
0.474342
0.613714
0.72376
0.809198
0.873938
0.921237
0.953831
0.974029
0.983798
0.984819
0.978538
0.9662
0.948884
0.927526
0.90294
0.875831
0.84681
0.816393
0.785011
0.75301
0.720658
0.688159
0.655672
0.62333
0.591256
0.559555
0.528297
0.497484
0.467019
0.436715
0.406289
0.375456
0.343877
0.311448
0.277816
0.243486
0.207411
0.171995
0.132434
0.0990807
0.0505022
0.032147
-15.232
-15.6972
-16.2303
-16.8168
-17.4307
-18.036
-18.5862
-19.029
-19.3134
-19.3965
-19.2492
-18.8599
-18.2359
-17.4023
-16.4005
-15.2852
-14.121
-12.9791
-11.9331
-11.0533
-10.4024
-10.0315
-9.97825
-10.2636
-10.8935
-11.8542
-13.1099
-14.6026
-16.2526
-17.9618
-19.6201
-21.1137
-22.3329
-23.1843
-23.5969
-23.5341
-22.9979
-22.0283
-20.696
-19.0907
-17.3091
-15.4432
-13.573
-11.762
-10.0564
-8.48612
-7.06781
-5.80709
-4.7016
-3.74342
-2.92109
-2.22123
-1.62981
-1.13301
-0.717835
-0.372491
-0.0865327
0.149082
0.342062
0.498909
0.625079
0.725146
0.802961
0.861792
0.904426
0.93327
0.950405
0.957645
0.95657
0.948561
0.934822
0.916405
0.894224
0.869071
0.841628
0.812475
0.782089
0.750861
0.719094
0.687026
0.654846
0.622715
0.590784
0.559188
0.528022
0.497309
0.466966
0.436808
0.406541
0.37586
0.3444
0.312039
0.278426
0.24406
0.20794
0.172415
0.132845
0.099261
0.0509332
0.0317823
-15.2125
-15.6302
-16.0977
-16.6011
-17.118
-17.619
-18.0666
-18.4193
-18.6364
-18.6839
-18.5381
-18.1896
-17.6439
-16.9219
-16.058
-15.0982
-14.0974
-13.1163
-12.2176
-11.4618
-10.9033
-10.5868
-10.5453
-10.7977
-11.3481
-12.1843
-13.2746
-14.5683
-15.9962
-17.4738
-18.9065
-20.1961
-21.2487
-21.9833
-22.3384
-22.281
-21.81
-20.956
-19.7756
-18.3432
-16.7402
-15.0463
-13.3324
-11.6565
-10.0623
-8.58001
-7.22754
-6.01303
-4.93701
-3.99448
-3.17678
-2.47307
-1.87152
-1.36019
-0.927623
-0.563274
-0.257691
-0.00259047
0.209168
0.383686
0.526153
0.640994
0.731996
0.802433
0.855156
0.892666
0.917169
0.930614
0.934722
0.931012
0.920818
0.905309
0.885501
0.862277
0.836391
0.808482
0.779083
0.748623
0.717443
0.685813
0.653949
0.622038
0.590257
0.558768
0.527694
0.497083
0.466868
0.436867
0.406777
0.376266
0.344942
0.312659
0.279068
0.244659
0.208485
0.172838
0.133251
0.0994151
0.0513504
0.031357
-15.1696
-15.5428
-15.9513
-16.3824
-16.8172
-17.2312
-17.5945
-17.8738
-18.0371
-18.0572
-17.9153
-17.6037
-17.1272
-16.5029
-15.7596
-14.9359
-14.0783
-13.2381
-12.4689
-11.8223
-11.3453
-11.0766
-11.0451
-11.2672
-11.7463
-12.4713
-13.4143
-14.5311
-15.762
-17.0343
-18.267
-19.3756
-20.2797
-20.9093
-21.2112
-21.1555
-20.7387
-19.9839
-18.9365
-17.6573
-16.215
-14.6779
-13.1085
-11.5593
-10.0712
-8.67376
-7.38577
-6.21723
-5.17103
-4.24477
-3.43237
-2.72535
-2.11405
-1.58836
-1.13842
-0.754953
-0.42955
-0.154732
0.0760411
0.268444
0.427387
0.557134
0.661412
0.743506
0.806334
0.852503
0.884348
0.903962
0.913211
0.913756
0.907063
0.894419
0.876948
0.855617
0.831255
0.804565
0.776126
0.746413
0.715801
0.68459
0.653024
0.621317
0.589674
0.558282
0.527296
0.496788
0.46671
0.436884
0.406995
0.376681
0.345518
0.313329
0.279768
0.245318
0.209093
0.173319
0.133719
0.0996213
0.0518358
0.0309584
-15.1077
-15.4395
-15.7954
-16.164
-16.5292
-16.8708
-17.1648
-17.3847
-17.5052
-17.5048
-17.3687
-17.091
-16.6755
-16.1367
-15.4986
-14.7935
-14.0607
-13.3436
-12.6875
-12.1364
-11.7307
-11.5036
-11.4802
-11.6747
-12.0899
-12.7156
-13.5275
-14.4875
-15.544
-16.6349
-17.6906
-18.6391
-19.4113
-19.947
-20.2
-20.1434
-19.772
-19.1029
-18.172
-17.0291
-15.7315
-14.3376
-12.9019
-11.4716
-10.0845
-8.76888
-7.54392
-6.42092
-5.40472
-4.49518
-3.68852
-2.97855
-2.35767
-1.81764
-1.35017
-0.94734
-0.601816
-0.306969
-0.0568904
0.153642
0.329247
0.474025
0.591644
0.685408
0.758311
0.813077
0.852182
0.87787
0.892159
0.896859
0.893573
0.883709
0.868497
0.848995
0.826108
0.800598
0.773098
0.74412
0.714075
0.683289
0.652031
0.620538
0.589037
0.557744
0.526842
0.496434
0.466496
0.436858
0.407191
0.377099
0.346118
0.314036
0.280505
0.246006
0.209716
0.173797
0.134176
0.0997911
0.0522989
0.0304895
-15.0317
-15.3256
-15.6348
-15.9493
-16.2556
-16.537
-16.7742
-16.9461
-17.0329
-17.0176
-16.8886
-16.6415
-16.2798
-15.8156
-15.2689
-14.6669
-14.0424
-13.4321
-12.8743
-12.4063
-12.0624
-11.8712
-11.8541
-12.0234
-12.3812
-12.9185
-13.6143
-14.4355
-15.3382
-16.269
-17.1687
-17.9757
-18.6311
-19.0831
-19.2916
-19.2325
-18.8995
-18.3047
-17.4764
-16.455
-15.288
-14.0251
-12.7134
-11.3947
-10.1037
-8.86701
-7.70358
-6.62559
-5.6394
-4.7468
-3.94612
-3.23331
-2.6028
-2.0482
-1.56287
-1.14026
-0.774184
-0.458892
-0.189153
0.039788
0.232249
0.392172
0.523173
0.628589
0.711507
0.774781
0.82104
0.852688
0.871905
0.880653
0.880674
0.873501
0.860468
0.842725
0.82125
0.796864
0.77025
0.741961
0.71244
0.682042
0.651059
0.61975
0.588366
0.557152
0.526322
0.496011
0.466221
0.436789
0.407374
0.377539
0.34677
0.314812
0.281322
0.246773
0.210419
0.174349
0.134712
0.100028
0.0528457
0.0300583
-14.9442
-15.2037
-15.4717
-15.7396
-15.9961
-16.2275
-16.4182
-16.5516
-16.612
-16.5862
-16.4654
-16.2461
-15.9318
-15.5325
-15.065
-14.5521
-14.0213
-13.5033
-13.0304
-12.6341
-12.3434
-12.1827
-12.1701
-12.3162
-12.6226
-13.0814
-13.6744
-14.3733
-15.1404
-15.9304
-16.6928
-17.3754
-17.9278
-18.3056
-18.4742
-18.4117
-18.1114
-17.5816
-16.8441
-15.9315
-14.8829
-13.7401
-12.5435
-11.33
-10.1306
-8.96997
-7.8666
-6.833
-5.87666
-5.001
-4.20629
-3.49049
-2.85002
-2.28037
-1.77659
-1.33357
-0.946323
-0.61004
-0.320191
-0.0725095
0.13702
0.312186
0.45657
0.57356
0.666355
0.73796
0.791172
0.828573
0.852513
0.865115
0.868267