/*--------------------------------*- C++ -*----------------------------------*\
| =========                 |                                                 |
| \\      /  F ield         | OpenFOAM: The Open Source CFD Toolbox           |
|  \\    /   O peration     | Version:  2.1.1                                 |
|   \\  /    A nd           | Web:      www.OpenFOAM.org                      |
|    \\/     M anipulation  |                                                 |
\*---------------------------------------------------------------------------*/
FoamFile
{
    version     2.0;
    format      ascii;
    class       surfaceScalarField;
    location    "0.065";
    object      phi;
}
// * * * * * * * * * * * * * * * * * * * * * * * * * * * * * * * * * * * * * //

dimensions      [0 3 -1 0 0 0 0];

internalField   nonuniform List<scalar> 
13452
(
4.59945e-05
2.24927e-05
2.96513e-05
1.63432e-05
2.11642e-05
8.48705e-06
1.72501e-05
3.91409e-06
1.5593e-05
1.65715e-06
1.47678e-05
8.25145e-07
1.4238e-05
5.29846e-07
1.38263e-05
4.11692e-07
1.34723e-05
3.53985e-07
1.31601e-05
3.12203e-07
1.28845e-05
2.75595e-07
1.26409e-05
2.43584e-07
1.24242e-05
2.1668e-07
1.22292e-05
1.95057e-07
1.20507e-05
1.78477e-07
1.18842e-05
1.6653e-07
1.17253e-05
1.5883e-07
1.15702e-05
1.55099e-07
1.14151e-05
1.55196e-07
1.12559e-05
1.5912e-07
1.10889e-05
1.67011e-07
1.09098e-05
1.79139e-07
1.07139e-05
1.95911e-07
1.0496e-05
2.17871e-07
1.02503e-05
2.45698e-07
9.97003e-06
2.8027e-07
9.64756e-06
3.22474e-07
9.27363e-06
3.73933e-07
8.83893e-06
4.34697e-07
8.32884e-06
5.10093e-07
7.73848e-06
5.90357e-07
7.03378e-06
7.04704e-07
7.41006e-07
6.29277e-06
7.49095e-05
1.80272e-05
7.03989e-05
2.08539e-05
6.32929e-05
1.5593e-05
5.6618e-05
1.0589e-05
5.1479e-05
6.79616e-06
4.7799e-05
4.50519e-06
4.51517e-05
3.17712e-06
4.31947e-05
2.3687e-06
4.16943e-05
1.85443e-06
4.04999e-05
1.50656e-06
3.95186e-05
1.25691e-06
3.86916e-05
1.07062e-06
3.79799e-05
9.28346e-07
3.73566e-05
8.18358e-07
3.68019e-05
7.33127e-07
3.63008e-05
6.6764e-07
3.58411e-05
6.18522e-07
3.54127e-05
5.83547e-07
3.50066e-05
5.61327e-07
3.46145e-05
5.51127e-07
3.42288e-05
5.52735e-07
3.38416e-05
5.66398e-07
3.34447e-05
5.92781e-07
3.30296e-05
6.32967e-07
3.25868e-05
6.88469e-07
3.21058e-05
7.61311e-07
3.15743e-05
8.53963e-07
3.09782e-05
9.69997e-07
3.03004e-05
1.11252e-06
2.95208e-05
1.28972e-06
2.86096e-05
1.50159e-06
2.75459e-05
1.76838e-06
2.13411e-06
2.61528e-05
7.85201e-05
1.19636e-05
8.23285e-05
1.70455e-05
8.29751e-05
1.49464e-05
8.14414e-05
1.21226e-05
7.88948e-05
9.3428e-06
7.61799e-05
7.22015e-06
7.36287e-05
5.72826e-06
7.13449e-05
4.65246e-06
6.93417e-05
3.85765e-06
6.75941e-05
3.25417e-06
6.60682e-05
2.78281e-06
6.47312e-05
2.40769e-06
6.35535e-05
2.10602e-06
6.25096e-05
1.86219e-06
6.15778e-05
1.66501e-06
6.0739e-05
1.5064e-06
5.99771e-05
1.38046e-06
5.92776e-05
1.28296e-06
5.8628e-05
1.21096e-06
5.80166e-05
1.16257e-06
5.74325e-05
1.13681e-06
5.68654e-05
1.13349e-06
5.6305e-05
1.15315e-06
5.57409e-05
1.19708e-06
5.51621e-05
1.26733e-06
5.45566e-05
1.3668e-06
5.39112e-05
1.49933e-06
5.3211e-05
1.67022e-06
5.24378e-05
1.88567e-06
5.15713e-05
2.15626e-06
5.05808e-05
2.49208e-06
4.94326e-05
2.91656e-06
3.48872e-06
4.8078e-05
7.81457e-05
8.34457e-06
8.19194e-05
1.32718e-05
8.46109e-05
1.22549e-05
8.62259e-05
1.05076e-05
8.68921e-05
8.67659e-06
8.69616e-05
7.15067e-06
8.66766e-05
6.0133e-06
8.61793e-05
5.14973e-06
8.55613e-05
4.47563e-06
8.48783e-05
3.93725e-06
8.41644e-05
3.49669e-06
8.3442e-05
3.13006e-06
8.27263e-05
2.82173e-06
8.20272e-05
2.56132e-06
8.135e-05
2.34214e-06
8.06973e-05
2.15917e-06
8.00691e-05
2.00866e-06
7.94641e-05
1.88796e-06
7.88797e-05
1.79531e-06
7.83125e-05
1.7298e-06
7.77581e-05
1.69124e-06
7.72114e-05
1.68018e-06
7.66666e-05
1.6979e-06
7.61172e-05
1.74649e-06
7.55556e-05
1.82889e-06
7.49734e-05
1.94906e-06
7.43606e-05
2.11216e-06
7.37058e-05
2.32494e-06
7.29955e-05
2.59603e-06
7.22143e-05
2.9374e-06
7.13412e-05
3.36525e-06
7.03569e-05
3.90085e-06
4.59802e-06
6.92476e-05
7.89901e-05
6.01028e-06
8.15862e-05
1.06757e-05
8.35086e-05
1.03325e-05
8.49472e-05
9.06899e-06
8.59591e-05
7.66471e-06
8.66923e-05
6.41742e-06
8.72486e-05
5.45705e-06
8.76753e-05
4.72306e-06
8.80034e-05
4.14747e-06
8.82539e-05
3.6868e-06
8.84406e-05
3.30996e-06
8.85742e-05
2.99643e-06
8.86621e-05
2.73382e-06
8.871e-05
2.5135e-06
8.87233e-05
2.3288e-06
8.87071e-05
2.17536e-06
8.86654e-05
2.05035e-06
8.86014e-05
1.95196e-06
8.85175e-05
1.87928e-06
8.84151e-05
1.83213e-06
8.82953e-05
1.81103e-06
8.81583e-05
1.81722e-06
8.80036e-05
1.85264e-06
8.783e-05
1.92001e-06
8.7636e-05
2.02297e-06
8.74189e-05
2.16616e-06
8.71755e-05
2.35549e-06
8.69021e-05
2.59841e-06
8.65936e-05
2.90448e-06
8.62456e-05
3.28539e-06
8.58528e-05
3.75803e-06
8.54148e-05
4.33888e-06
5.06413e-06
8.49487e-05
8.04618e-05
4.39443e-06
8.25e-05
8.63751e-06
8.398e-05
8.85244e-06
8.50318e-05
8.01719e-06
8.57456e-05
6.95097e-06
8.62499e-05
5.91306e-06
8.66462e-05
5.06074e-06
8.69816e-05
4.38768e-06
8.72791e-05
3.84998e-06
8.75501e-05
3.41576e-06
8.77996e-05
3.06053e-06
8.80298e-05
2.76617e-06
8.82431e-05
2.52051e-06
8.84412e-05
2.31538e-06
8.86251e-05
2.14498e-06
8.87953e-05
2.00515e-06
8.89526e-05
1.89302e-06
8.90978e-05
1.80678e-06
8.92316e-05
1.74545e-06
8.93549e-05
1.7088e-06
8.94687e-05
1.69728e-06
8.95739e-05
1.71202e-06
8.96717e-05
1.75483e-06
8.97635e-05
1.82823e-06
8.98509e-05
1.93558e-06
8.99359e-05
2.08113e-06
9.00212e-05
2.27023e-06
9.01101e-05
2.50942e-06
9.02077e-05
2.80695e-06
9.03208e-05
3.1723e-06
9.04606e-05
3.61816e-06
9.06441e-05
4.15542e-06
4.79724e-06
9.0911e-05
8.22328e-05
3.26018e-06
8.38892e-05
6.98115e-06
8.51707e-05
7.57087e-06
8.60963e-05
7.09165e-06
8.67281e-05
6.31917e-06
8.71563e-05
5.48483e-06
8.74688e-05
4.74823e-06
8.7715e-05
4.14154e-06
8.79214e-05
3.64354e-06
8.81035e-05
3.23364e-06
8.82694e-05
2.89461e-06
8.84234e-05
2.61218e-06
8.85679e-05
2.37604e-06
8.87044e-05
2.17893e-06
8.88338e-05
2.01556e-06
8.89568e-05
1.8821e-06
8.9074e-05
1.77584e-06
8.91858e-05
1.69501e-06
8.92927e-05
1.63858e-06
8.93952e-05
1.60621e-06
8.94944e-05
1.59818e-06
8.95911e-05
1.61532e-06
8.96868e-05
1.6591e-06
8.97835e-05
1.73153e-06
8.98838e-05
1.83528e-06
8.99913e-05
1.97365e-06
9.01108e-05
2.1507e-06
9.02491e-05
2.37114e-06
9.04155e-05
2.64051e-06
9.06233e-05
2.96456e-06
9.0892e-05
3.34945e-06
9.12478e-05
3.79958e-06
4.31165e-06
9.17334e-05
8.42153e-05
2.46046e-06
8.55453e-05
5.6511e-06
8.66613e-05
6.45486e-06
8.75108e-05
6.2422e-06
8.81268e-05
5.70313e-06
8.85623e-05
5.04928e-06
8.88827e-05
4.42787e-06
8.91315e-05
3.89273e-06
8.93344e-05
3.44065e-06
8.95074e-05
3.06067e-06
8.966e-05
2.74202e-06
8.97977e-05
2.47444e-06
8.9924e-05
2.24973e-06
9.00411e-05
2.06181e-06
9.01506e-05
1.90614e-06
9.02534e-05
1.77929e-06
9.03504e-05
1.67881e-06
9.04424e-05
1.60304e-06
9.053e-05
1.55098e-06
9.06139e-05
1.52222e-06
9.06952e-05
1.51689e-06
9.07749e-05
1.53562e-06
9.08546e-05
1.57948e-06
9.0936e-05
1.65004e-06
9.10221e-05
1.74926e-06
9.11162e-05
1.87952e-06
9.12234e-05
2.04354e-06
9.13502e-05
2.24425e-06
9.15062e-05
2.48455e-06
9.17039e-05
2.76683e-06
9.19614e-05
3.09196e-06
9.23024e-05
3.45859e-06
3.85541e-06
9.27587e-05
8.63707e-05
1.88853e-06
8.7436e-05
4.58573e-06
8.84014e-05
5.48947e-06
8.91709e-05
5.47268e-06
8.97578e-05
5.11625e-06
9.01928e-05
4.61435e-06
9.05229e-05
4.09772e-06
9.07847e-05
3.63091e-06
9.10007e-05
3.22465e-06
9.11855e-05
2.87592e-06
9.13482e-05
2.5793e-06
9.14946e-05
2.32805e-06
9.16283e-05
2.11598e-06
9.17519e-05
1.9382e-06
9.18672e-05
1.79088e-06
9.19754e-05
1.67105e-06
9.20777e-05
1.57651e-06
9.2175e-05
1.50572e-06
9.22683e-05
1.45771e-06
9.23585e-05
1.43201e-06
9.24468e-05
1.42858e-06
9.25347e-05
1.4478e-06
9.26238e-05
1.49039e-06
9.27164e-05
1.55739e-06
9.28156e-05
1.65009e-06
9.29252e-05
1.76994e-06
9.30503e-05
1.91843e-06
9.31977e-05
2.09684e-06
9.33763e-05
2.3059e-06
9.35979e-05
2.54526e-06
9.38776e-05
2.81227e-06
9.42345e-05
3.10171e-06
3.39974e-06
9.46901e-05
8.86662e-05
1.47236e-06
8.95195e-05
3.73237e-06
9.03515e-05
4.6575e-06
9.10456e-05
4.77859e-06
9.1599e-05
4.56284e-06
9.2027e-05
4.18636e-06
9.23615e-05
3.76319e-06
9.26317e-05
3.36068e-06
9.28572e-05
2.99917e-06
9.30512e-05
2.68198e-06
9.32225e-05
2.40797e-06
9.3377e-05
2.17353e-06
9.35186e-05
1.97442e-06
9.36498e-05
1.80692e-06
9.37728e-05
1.66793e-06
9.38889e-05
1.55494e-06
9.39994e-05
1.46599e-06
9.41055e-05
1.39966e-06
9.42082e-05
1.35499e-06
9.43088e-05
1.33141e-06
9.44087e-05
1.3287e-06
9.45095e-05
1.34696e-06
9.46134e-05
1.38651e-06
9.47229e-05
1.44786e-06
9.48414e-05
1.53161e-06
9.4973e-05
1.63831e-06
9.51232e-05
1.76829e-06
9.52986e-05
1.9214e-06
9.55079e-05
2.09659e-06
9.57617e-05
2.29146e-06
9.60729e-05
2.50115e-06
9.64563e-05
2.71824e-06
2.92883e-06
9.69272e-05
9.10799e-05
1.16373e-06
9.17654e-05
3.04693e-06
9.24813e-05
3.94156e-06
9.31067e-05
4.15326e-06
9.36257e-05
4.04378e-06
9.40429e-05
3.76918e-06
9.43783e-05
3.42775e-06
9.46545e-05
3.08449e-06
9.4888e-05
2.76566e-06
9.50906e-05
2.47943e-06
9.52704e-05
2.22811e-06
9.54332e-05
2.01073e-06
9.55829e-05
1.82481e-06
9.5722e-05
1.66773e-06
9.58529e-05
1.53708e-06
9.5977e-05
1.43079e-06
9.60959e-05
1.34714e-06
9.62107e-05
1.28481e-06
9.63229e-05
1.24283e-06
9.64338e-05
1.22052e-06
9.6545e-05
1.21747e-06
9.66585e-05
1.23348e-06
9.67765e-05
1.26848e-06
9.6902e-05
1.32245e-06
9.70382e-05
1.39532e-06
9.71897e-05
1.48684e-06
9.73617e-05
1.59633e-06
9.75606e-05
1.72247e-06
9.77943e-05
1.86287e-06
9.8072e-05
2.01374e-06
9.84042e-05
2.169e-06
9.88021e-05
2.3203e-06
2.45486e-06
9.92761e-05
9.35983e-05
9.30047e-07
9.41517e-05
2.4936e-06
9.47671e-05
3.32613e-06
9.53293e-05
3.591e-06
9.58139e-05
3.55919e-06
9.62178e-05
3.36529e-06
9.65522e-05
3.0934e-06
9.68332e-05
2.80343e-06
9.70744e-05
2.52447e-06
9.72857e-05
2.26814e-06
9.74745e-05
2.0393e-06
9.76462e-05
1.83906e-06
9.78045e-05
1.66649e-06
9.79523e-05
1.51993e-06
9.80918e-05
1.39762e-06
9.82247e-05
1.2979e-06
9.83525e-05
1.21928e-06
9.84768e-05
1.16053e-06
9.8599e-05
1.12065e-06
9.87207e-05
1.09887e-06
9.88435e-05
1.09458e-06
9.89698e-05
1.10727e-06
9.91017e-05
1.13651e-06
9.92424e-05
1.18178e-06
9.93953e-05
1.24245e-06
9.95646e-05
1.31753e-06
9.97554e-05
1.40556e-06
9.99735e-05
1.50433e-06
0.000100226
1.61058e-06
0.00010052
1.7197e-06
0.000100864
1.82518e-06
0.000101265
1.91861e-06
1.98895e-06
0.000101731
9.62128e-05
7.4935e-07
9.66626e-05
2.04378e-06
9.71919e-05
2.79683e-06
9.76971e-05
3.08583e-06
9.81483e-05
3.10801e-06
9.85372e-05
2.97634e-06
9.88683e-05
2.76227e-06
9.91526e-05
2.51919e-06
9.94003e-05
2.27675e-06
9.96198e-05
2.04866e-06
9.98175e-05
1.8416e-06
9.99983e-05
1.65825e-06
0.000100166
1.49892e-06
0.000100323
1.36284e-06
0.000100472
1.24881e-06
0.000100614
1.15552e-06
0.000100752
1.0817e-06
0.000100886
1.02618e-06
0.000101019
9.87939e-07
0.000101152
9.66093e-07
0.000101286
9.59835e-07
0.000101425
9.68401e-07
0.000101571
9.90995e-07
0.000101726
1.0267e-06
0.000101894
1.07437e-06
0.000102079
1.13247e-06
0.000102285
1.19896e-06
0.000102519
1.27103e-06
0.000102784
1.34492e-06
0.000103088
1.41572e-06
0.000103437
1.47702e-06
0.000103834
1.52095e-06
1.53837e-06
0.000104285
9.89184e-05
6.0666e-07
9.92874e-05
1.6748e-06
9.97437e-05
2.34057e-06
0.000100198
2.63187e-06
0.000100617
2.68869e-06
0.00010099
2.60333e-06
0.000101316
2.436e-06
0.000101602
2.23319e-06
0.000101856
2.02343e-06
0.000102083
1.82147e-06
0.000102289
1.63509e-06
0.000102479
1.46813e-06
0.000102656
1.32183e-06
0.000102823
1.19612e-06
0.000102982
1.09028e-06
0.000103134
1.00329e-06
0.000103282
9.34064e-07
0.000103426
8.81491e-07
0.00010357
8.44524e-07
0.000103714
8.22162e-07
0.00010386
8.13427e-07
0.000104011
8.17317e-07
0.000104169
8.3274e-07
0.000104338
8.58435e-07
0.000104519
8.9287e-07
0.000104717
9.34123e-07
0.000104937
9.79748e-07
0.000105181
1.02664e-06
0.000105455
1.07085e-06
0.000105763
1.10753e-06
0.00010611
1.13074e-06
0.000106497
1.13346e-06
1.10845e-06
0.000106927
0.000101713
4.91659e-07
0.000102019
1.36888e-06
0.000102414
1.94564e-06
0.000102822
2.22332e-06
0.000103212
2.29903e-06
0.000103569
2.24641e-06
0.000103889
2.11566e-06
0.000104176
1.94654e-06
0.000104434
1.76543e-06
0.000104668
1.58718e-06
0.000104883
1.42015e-06
0.000105082
1.26883e-06
0.000105269
1.13516e-06
0.000105445
1.01959e-06
0.000105614
9.21783e-07
0.000105776
8.40967e-07
0.000105934
7.76174e-07
0.000106089
7.26349e-07
0.000106243
6.90408e-07
0.000106398
6.67253e-07
0.000106556
6.55752e-07
0.000106719
6.54706e-07
0.000106889
6.62788e-07
0.000107069
6.78475e-07
0.000107261
6.99966e-07
0.00010747
7.2509e-07
0.000107699
7.51204e-07
0.000107951
7.75106e-07
0.000108228
7.92931e-07
0.000108536
8.00138e-07
0.000108875
7.91463e-07
0.000109248
7.6092e-07
7.02974e-07
0.000109653
0.000104595
3.97125e-07
0.000104852
1.11212e-06
0.000105196
1.6017e-06
0.000105564
1.85447e-06
0.000105927
1.93646e-06
0.000106268
1.90514e-06
0.000106582
1.80183e-06
0.000106869
1.66007e-06
0.000107131
1.50347e-06
0.000107371
1.34631e-06
0.000107595
1.19702e-06
0.000107803
1.06042e-06
0.000107999
9.38852e-07
0.000108186
8.33137e-07
0.000108364
7.43193e-07
0.000108537
6.68434e-07
0.000108705
6.07986e-07
0.000108871
5.60815e-07
0.000109035
5.25804e-07
0.000109201
5.01768e-07
0.000109369
4.87454e-07
0.000109542
4.81506e-07
0.000109723
4.82426e-07
0.000109913
4.88517e-07
0.000110115
4.9782e-07
0.000110332
5.08047e-07
0.000110566
5.16519e-07
0.000110821
5.20113e-07
0.000111099
5.15222e-07
0.000111401
4.9778e-07
0.00011173
4.63304e-07
0.000112084
4.06847e-07
3.24385e-07
0.000112462
0.000107565
3.17906e-07
0.000107784
8.93645e-07
0.000108086
1.29973e-06
0.00010842
1.51986e-06
0.000108759
1.59812e-06
0.000109085
1.57848e-06
0.000109393
1.49455e-06
0.000109678
1.37418e-06
0.000109944
1.23801e-06
0.000110191
1.09923e-06
0.000110422
9.6596e-07
0.000110639
8.43026e-07
0.000110845
7.32951e-07
0.000111042
6.36743e-07
0.00011123
5.54487e-07
0.000111413
4.85704e-07
0.000111592
4.29574e-07
0.000111767
3.85071e-07
0.000111942
3.5104e-07
0.000112118
3.26228e-07
0.000112296
3.09287e-07
0.000112479
2.98755e-07
0.000112668
2.93024e-07
0.000112866
2.90304e-07
0.000113075
2.88575e-07
0.000113298
2.85548e-07
0.000113536
2.78633e-07
0.000113791
2.64918e-07
0.000114065
2.41163e-07
0.000114359
2.03866e-07
0.000114673
1.4935e-07
0.000115006
7.36854e-08
-2.5942e-08
0.000115356
0.000110625
2.50244e-07
0.000110813
7.04934e-07
0.000111081
1.03191e-06
0.000111387
1.21426e-06
0.000111704
1.28093e-06
0.000112017
1.26499e-06
0.000112319
1.19337e-06
0.000112604
1.08894e-06
0.000112873
9.69268e-07
0.000113126
8.46161e-07
0.000113364
7.27124e-07
0.000113591
6.16734e-07
0.000113806
5.17478e-07
0.000114012
4.30416e-07
0.000114211
3.55689e-07
0.000114404
2.92857e-07
0.000114593
2.41114e-07
0.000114778
1.99424e-07
0.000114963
1.6659e-07
0.000115148
1.41309e-07
0.000115335
1.22168e-07
0.000115526
1.07642e-07
0.000115723
9.60725e-08
0.000115927
8.56471e-08
0.000116142
7.43698e-08
0.000116367
6.00433e-08
0.000116606
4.0256e-08
0.000116858
1.24016e-08
0.000117126
-2.63467e-08
0.000117408
-7.88785e-08
0.000117706
-1.48128e-07
0.000118017
-2.37134e-07
-3.47626e-07
0.000118338
0.000113774
1.91335e-07
0.00011394
5.39236e-07
0.000114181
7.91508e-07
0.000114462
9.32731e-07
0.000114761
9.8167e-07
0.000115063
9.62819e-07
0.000115359
8.97427e-07
0.000115644
8.03977e-07
0.000115917
6.97119e-07
0.000116176
5.87068e-07
0.000116422
4.80488e-07
0.000116657
3.81507e-07
0.000116883
2.92401e-07
0.000117099
2.1414e-07
0.000117308
1.46826e-07
0.000117511
8.99936e-08
0.000117709
4.28113e-08
0.000117904
4.21384e-09
0.000118098
-2.70417e-08
0.000118291
-5.22894e-08
0.000118486
-7.29821e-08
0.000118685
-9.06669e-08
0.000118888
-1.07e-07
0.000119097
-1.23756e-07
0.000119314
-1.4284e-07
0.000119541
-1.66294e-07
0.000119777
-1.96284e-07
0.000120025
-2.35083e-07
0.000120283
-2.85037e-07
0.000120553
-3.48487e-07
0.000120833
-4.27662e-07
0.00012112
-5.248e-07
-6.40826e-07
0.000121413
0.000117017
1.39026e-07
0.000117165
3.91141e-07
0.000117384
5.7267e-07
0.000117646
6.7062e-07
0.00011793
6.9703e-07
0.000118223
6.69798e-07
0.000118515
6.05416e-07
0.000118801
5.18561e-07
0.000119077
4.21143e-07
0.000119342
3.217e-07
0.000119597
2.25894e-07
0.000119841
1.37244e-07
0.000120076
5.76662e-08
0.000120302
-1.20779e-08
0.000120521
-7.20148e-08
0.000120733
-1.22697e-07
0.000120941
-1.65019e-07
0.000121146
-2.00102e-07
0.000121348
-2.29217e-07
0.000121549
-2.53736e-07
0.000121751
-2.75121e-07
0.000121956
-2.94908e-07
0.000122163
-3.14708e-07
0.000122376
-3.36212e-07
0.000122594
-3.61186e-07
0.000122819
-3.91469e-07
0.000123052
-4.28949e-07
0.000123292
-4.75541e-07
0.000123541
-5.33137e-07
0.000123796
-6.03551e-07
0.000124056
-6.88405e-07
0.000124321
-7.89274e-07
-9.06458e-07
0.000124586
0.000120353
9.16136e-08
0.000120488
2.56226e-07
0.000120691
3.70287e-07
0.000120938
4.23509e-07
0.000121211
4.23599e-07
0.000121498
3.83459e-07
0.000121787
3.15642e-07
0.000122074
2.31538e-07
0.000122355
1.4053e-07
0.000122627
4.94602e-08
0.00012289
-3.71147e-08
0.000123144
-1.16412e-07
0.000123389
-1.86993e-07
0.000123625
-2.48411e-07
0.000123854
-3.00901e-07
0.000124076
-3.4516e-07
0.000124293
-3.82183e-07
0.000124506
-4.1316e-07
0.000124717
-4.39406e-07
0.000124925
-4.62315e-07
0.000125133
-4.83338e-07
0.000125343
-5.03975e-07
0.000125554
-5.25761e-07
0.000125768
-5.50268e-07
0.000125986
-5.79094e-07
0.000126208
-6.13846e-07
0.000126435
-6.56125e-07
0.000126667
-7.07488e-07
0.000126903
-7.69407e-07
0.000127143
-8.43222e-07
0.000127385
-9.30038e-07
0.000127626
-1.03088e-06
-1.14557e-06
0.000127865
0.000123787
4.7709e-08
0.000123913
1.30785e-07
0.000124103
1.79807e-07
0.000124339
1.87175e-07
0.000124605
1.57869e-07
0.000124887
1.0106e-07
0.000125177
2.60557e-08
0.000125467
-5.85952e-08
0.000125754
-1.4582e-07
0.000126033
-2.30453e-07
0.000126305
-3.09116e-07
0.000126569
-3.79855e-07
0.000126824
-4.41816e-07
0.00012707
-4.94951e-07
0.000127309
-5.39778e-07
0.000127541
-5.77189e-07
0.000127767
-6.08317e-07
0.000127989
-6.34438e-07
0.000128206
-6.56918e-07
0.000128421
-6.77164e-07
0.000128634
-6.96608e-07
0.000128847
-7.1669e-07
0.00012906
-7.38851e-07
0.000129274
-7.64521e-07
0.00012949
-7.95109e-07
0.000129708
-8.31989e-07
0.000129929
-8.76473e-07
0.000130151
-9.29783e-07
0.000130375
-9.93015e-07
0.000130599
-1.0671e-06
0.000130821
-1.15272e-06
0.000131041
-1.25047e-06
-1.35985e-06
0.000131255
0.00012732
6.1275e-09
0.000127439
1.1602e-08
0.000127622
-2.9253e-09
0.000127852
-4.25115e-08
0.000128113
-1.03833e-07
0.000128395
-1.805e-07
0.000128687
-2.65872e-07
0.000128982
-3.53878e-07
0.000129276
-4.39558e-07
0.000129565
-5.19388e-07
0.000129847
-5.9121e-07
0.000130121
-6.53978e-07
0.000130387
-7.075e-07
0.000130644
-7.52212e-07
0.000130893
-7.88976e-07
0.000131135
-8.18932e-07
0.00013137
-8.43381e-07
0.000131599
-8.63709e-07
0.000131824
-8.81337e-07
0.000132044
-8.97689e-07
0.000132262
-9.14167e-07
0.000132477
-9.32144e-07
0.000132691
-9.52949e-07
0.000132905
-9.77862e-07
0.000133118
-1.0081e-06
0.000133331
-1.04481e-06
0.000133543
-1.08902e-06
0.000133755
-1.14166e-06
0.000133965
-1.2035e-06
0.000134173
-1.27511e-06
0.000134378
-1.35684e-06
0.000134576
-1.44892e-06
-1.55064e-06
0.000134767
0.000130955
-3.42024e-08
0.000131071
-1.04253e-07
0.00013125
-1.81856e-07
0.000131477
-2.69668e-07
0.000131739
-3.65332e-07
0.000132023
-4.64554e-07
0.00013232
-5.62929e-07
0.000132622
-6.56568e-07
0.000132925
-7.42475e-07
0.000133225
-8.18734e-07
0.000133518
-8.84444e-07
0.000133804
-9.39532e-07
0.000134081
-9.84544e-07
0.000134349
-1.02046e-06
0.000134608
-1.04856e-06
0.00013486
-1.07026e-06
0.000135103
-1.08707e-06
0.00013534
-1.1005e-06
0.000135571
-1.11204e-06
0.000135796
-1.12313e-06
0.000136017
-1.13514e-06
0.000136235
-1.14937e-06
0.000136449
-1.16704e-06
0.00013666
-1.18927e-06
0.000136869
-1.21709e-06
0.000137076
-1.25143e-06
0.00013728
-1.29308e-06
0.000137481
-1.34269e-06
0.000137678
-1.40075e-06
0.00013787
-1.46756e-06
0.000138057
-1.5432e-06
0.000138236
-1.62766e-06
-1.72008e-06
0.000138405
0.000134695
-7.42692e-08
0.000134811
-2.1956e-07
0.00013499
-3.60883e-07
0.000135218
-4.98614e-07
0.000135484
-6.30925e-07
0.000135775
-7.55145e-07
0.000136081
-8.68774e-07
0.000136394
-9.69905e-07
0.000136709
-1.0574e-06
0.000137021
-1.13092e-06
0.000137327
-1.19088e-06
0.000137626
-1.23823e-06
0.000137916
-1.27432e-06
0.000138196
-1.30077e-06
0.000138467
-1.3193e-06
0.000138728
-1.33167e-06
0.000138981
-1.33962e-06
0.000139225
-1.34481e-06
0.000139462
-1.34881e-06
0.000139692
-1.35308e-06
0.000139916
-1.35897e-06
0.000140134
-1.36769e-06
0.000140347
-1.38036e-06
0.000140556
-1.39795e-06
0.00014076
-1.42133e-06
0.00014096
-1.4512e-06
0.000141155
-1.48814e-06
0.000141345
-1.53258e-06
0.000141529
-1.58476e-06
0.000141706
-1.64477e-06
0.000141875
-1.71247e-06
0.000142035
-1.78764e-06
-1.86935e-06
0.000142185
0.000138543
-1.15072e-07
0.000138661
-3.37125e-07
0.000138844
-5.43992e-07
0.000139079
-7.33811e-07
0.000139353
-9.05037e-07
0.000139654
-1.05635e-06
0.000139972
-1.18698e-06
0.000140299
-1.2969e-06
0.000140629
-1.38679e-06
0.000140956
-1.45793e-06
0.000141277
-1.51206e-06
0.00014159
-1.55124e-06
0.000141893
-1.5777e-06
0.000142186
-1.59372e-06
0.000142469
-1.60153e-06
0.00014274
-1.60328e-06
0.000143002
-1.60096e-06
0.000143253
-1.5964e-06
0.000143496
-1.59127e-06
0.00014373
-1.58706e-06
0.000143956
-1.58508e-06
0.000144174
-1.58649e-06
0.000144386
-1.5923e-06
0.000144592
-1.60334e-06
0.000144791
-1.62032e-06
0.000144983
-1.64376e-06
0.000145169
-1.67406e-06
0.000145348
-1.71144e-06
0.000145519
-1.75596e-06
0.000145682
-1.80754e-06
0.000145836
-1.86588e-06
0.000145979
-1.93065e-06
-2.00089e-06
0.00014611
0.000142502
-1.57721e-07
0.000142625
-4.60085e-07
0.000142817
-7.35802e-07
0.000143064
-9.80729e-07
0.000143352
-1.1935e-06
0.00014367
-1.37402e-06
0.000144006
-1.52316e-06
0.000144352
-1.64273e-06
0.0001447
-1.73528e-06
0.000145046
-1.80377e-06
0.000145385
-1.85138e-06
0.000145716
-1.88136e-06
0.000146035
-1.89689e-06
0.000146342
-1.90099e-06
0.000146637
-1.89647e-06
0.000146919
-1.88588e-06
0.00014719
-1.87152e-06
0.000147449
-1.8554e-06
0.000147697
-1.83929e-06
0.000147935
-1.82472e-06
0.000148163
-1.81299e-06
0.000148381
-1.8052e-06
0.000148591
-1.80223e-06
0.000148793
-1.80482e-06
0.000148986
-1.81351e-06
0.000149171
-1.82868e-06
0.000149347
-1.85055e-06
0.000149515
-1.87919e-06
0.000149674
-1.91449e-06
0.000149822
-1.95623e-06
0.00014996
-2.00399e-06
0.000150087
-2.05734e-06
-2.11526e-06
0.000150202
0.000146575
-2.03383e-07
0.000146707
-5.9174e-07
0.000146912
-9.40993e-07
0.000147176
-1.24461e-06
0.000147484
-1.50151e-06
0.000147823
-1.71296e-06
0.000148181
-1.88154e-06
0.000148549
-2.01107e-06
0.00014892
-2.10604e-06
0.000149288
-2.17117e-06
0.000149647
-2.21116e-06
0.000149996
-2.23054e-06
0.000150333
-2.23352e-06
0.000150656
-2.22392e-06
0.000150965
-2.20517e-06
0.000151259
-2.18029e-06
0.00015154
-2.15189e-06
0.000151806
-2.12219e-06
0.00015206
-2.09308e-06
0.000152302
-2.06615e-06
0.000152531
-2.04268e-06
0.00015275
-2.02371e-06
0.000152958
-2.01006e-06
0.000153155
-2.00232e-06
0.000153342
-2.00092e-06
0.00015352
-2.0061e-06
0.000153687
-2.01793e-06
0.000153844
-2.03634e-06
0.000153991
-2.06113e-06
0.000154127
-2.09195e-06
0.000154251
-2.12831e-06
0.000154363
-2.16973e-06
-2.21524e-06
0.000154463
0.000150766
-2.5378e-07
0.000150911
-7.36931e-07
0.000151137
-1.16686e-06
0.000151427
-1.53434e-06
0.000151764
-1.83878e-06
0.000152134
-2.08296e-06
0.000152524
-2.27144e-06
0.000152923
-2.41028e-06
0.000153323
-2.50624e-06
0.000153718
-2.56605e-06
0.000154103
-2.59613e-06
0.000154475
-2.60241e-06
0.000154832
-2.59025e-06
0.000155172
-2.56435e-06
0.000155496
-2.52882e-06
0.000155803
-2.48713e-06
0.000156093
-2.44225e-06
0.000156368
-2.39662e-06
0.000156627
-2.35225e-06
0.000156871
-2.31077e-06
0.000157102
-2.27347e-06
0.00015732
-2.24131e-06
0.000157525
-2.21504e-06
0.000157718
-2.19515e-06
0.000157899
-2.18193e-06
0.000158068
-2.17551e-06
0.000158226
-2.17583e-06
0.000158372
-2.18272e-06
0.000158507
-2.19584e-06
0.00015863
-2.21476e-06
0.00015874
-2.23893e-06
0.000158838
-2.26778e-06
-2.30032e-06
0.000158924
0.000155078
-3.10306e-07
0.000155241
-8.99759e-07
0.000155493
-1.41875e-06
0.000155814
-1.85544e-06
0.000156186
-2.2106e-06
0.000156592
-2.48909e-06
0.000157018
-2.69778e-06
0.000157453
-2.84525e-06
0.000157888
-2.94073e-06
0.000158315
-2.99315e-06
0.000158729
-3.01079e-06
0.000159128
-3.00116e-06
0.000159509
-2.97087e-06
0.00015987
-2.92563e-06
0.000160212
-2.87025e-06
0.000160533
-2.80878e-06
0.000160836
-2.74454e-06
0.000161119
-2.68023e-06
0.000161385
-2.618e-06
0.000161634
-2.55951e-06
0.000161866
-2.50605e-06
0.000162083
-2.45855e-06
0.000162286
-2.41764e-06
0.000162475
-2.38373e-06
0.00016265
-2.357e-06
0.000162812
-2.33745e-06
0.000162961
-2.32491e-06
0.000163097
-2.31912e-06
0.000163221
-2.31965e-06
0.000163332
-2.32601e-06
0.000163431
-2.3376e-06
0.000163517
-2.35386e-06
-2.3738e-06
0.00016359
0.000159518
-3.7721e-07
0.000159709
-1.09122e-06
0.000160003
-1.71269e-06
0.000160374
-2.22653e-06
0.000160799
-2.63588e-06
0.000161259
-2.94874e-06
0.000161736
-3.17529e-06
0.000162219
-3.32768e-06
0.000162696
-3.41831e-06
0.000163162
-3.45873e-06
0.000163611
-3.45935e-06
0.000164039
-3.42939e-06
0.000164445
-3.37679e-06
0.000164827
-3.30827e-06
0.000165187
-3.22939e-06
0.000165522
-3.14473e-06
0.000165836
-3.05798e-06
0.000166128
-2.97206e-06
0.000166399
-2.88924e-06
0.000166651
-2.81123e-06
0.000166884
-2.73929e-06
0.0001671
-2.6743e-06
0.000167299
-2.6168e-06
0.000167482
-2.56709e-06
0.00016765
-2.52524e-06
0.000167804
-2.49113e-06
0.000167944
-2.46451e-06
0.00016807
-2.44498e-06
0.000168182
-2.43207e-06
0.000168281
-2.42518e-06
0.000168367
-2.42366e-06
0.00016844
-2.42686e-06
-2.43378e-06
0.0001685
0.000164083
-4.54219e-07
0.000164305
-1.3133e-06
0.000164643
-2.05058e-06
0.000165066
-2.64985e-06
0.000165549
-3.11881e-06
0.000166069
-3.46879e-06
0.000166607
-3.71338e-06
0.000167149
-3.86873e-06
0.000167681
-3.95098e-06
0.000168197
-3.97477e-06
0.000168691
-3.95311e-06
0.000169159
-3.89731e-06
0.000169599
-3.81691e-06
0.000170011
-3.71982e-06
0.000170394
-3.61247e-06
0.000170749
-3.50004e-06
0.000171078
-3.38659e-06
0.000171381
-3.27527e-06
0.00017166
-3.16846e-06
0.000171917
-3.06789e-06
0.000172152
-2.97477e-06
0.000172368
-2.88989e-06
0.000172565
-2.81367e-06
0.000172744
-2.74629e-06
0.000172906
-2.6877e-06
0.000173053
-2.63765e-06
0.000173184
-2.59578e-06
0.000173301
-2.56161e-06
0.000173403
-2.53458e-06
0.000173492
-2.51407e-06
0.000173568
-2.49937e-06
0.000173631
-2.48986e-06
-2.48453e-06
0.000173682
0.000168796
-5.58692e-07
0.000169085
-1.60193e-06
0.000169511
-2.47655e-06
0.000170028
-3.16741e-06
0.000170603
-3.6933e-06
0.000171207
-4.07312e-06
0.000171821
-4.32678e-06
0.000172428
-4.47622e-06
0.000173019
-4.54185e-06
0.000173586
-4.54149e-06
0.000174123
-4.49073e-06
0.000174629
-4.40287e-06
0.000175101
-4.28898e-06
0.000175539
-4.15807e-06
0.000175944
-4.01741e-06
0.000176317
-3.87274e-06
0.000176659
-3.7285e-06
0.000176972
-3.58804e-06
0.000177257
-3.45382e-06
0.000177517
-3.32758e-06
0.000177752
-3.21048e-06
0.000177966
-3.10319e-06
0.000178158
-3.00602e-06
0.000178331
-2.919e-06
0.000178485
-2.84193e-06
0.000178622
-2.77445e-06
0.000178742
-2.71607e-06
0.000178847
-2.6662e-06
0.000178936
-2.62421e-06
0.000179012
-2.58938e-06
0.000179073
-2.56096e-06
0.000179121
-2.53821e-06
-2.52005e-06
0.000179157
0.000173624
-6.71607e-07
0.000173959
-1.93682e-06
0.000174457
-2.97428e-06
0.000175067
-3.77763e-06
0.000175749
-4.3753e-06
0.000176466
-4.7905e-06
0.00017719
-5.05078e-06
0.000177901
-5.18667e-06
0.000178584
-5.22503e-06
0.000179231
-5.18849e-06
0.000179837
-5.09634e-06
0.000180398
-4.96465e-06
0.000180916
-4.80637e-06
0.00018139
-4.63188e-06
0.000181822
-4.44931e-06
0.000182214
-4.26492e-06
0.000182569
-4.08343e-06
0.000182889
-3.90831e-06
0.000183177
-3.742e-06
0.000183436
-3.58612e-06
0.000183667
-3.44168e-06
0.000183873
-3.30915e-06
0.000184055
-3.18864e-06
0.000184216
-3.07998e-06
0.000184357
-2.98278e-06
0.000184479
-2.89651e-06
0.000184584
-2.82053e-06
0.000184672
-2.75416e-06
0.000184744
-2.69668e-06
0.000184802
-2.64735e-06
0.000184847
-2.6054e-06
0.000184879
-2.57016e-06
-2.54044e-06
0.000184899
0.000178684
-8.86926e-07
0.000179196
-2.44943e-06
0.000179876
-3.65394e-06
0.000180643
-4.5446e-06
0.000181455
-5.1877e-06
0.000182281
-5.61577e-06
0.000183095
-5.86487e-06
0.000183881
-5.97307e-06
0.000184628
-5.97202e-06
0.000185328
-5.88839e-06
0.000185977
-5.74497e-06
0.000186573
-5.56045e-06
0.000187116
-5.34976e-06
0.000187609
-5.12463e-06
0.000188053
-4.89407e-06
0.000188453
-4.66486e-06
0.000188812
-4.44197e-06
0.000189132
-4.22888e-06
0.000189418
-4.02792e-06
0.000189673
-3.84052e-06
0.000189899
-3.66742e-06
0.000190098
-3.50884e-06
0.000190274
-3.3646e-06
0.000190428
-3.23424e-06
0.000190563
-3.11713e-06
0.000190679
-3.0125e-06
0.000190778
-2.91954e-06
0.000190861
-2.83742e-06
0.00019093
-2.76533e-06
0.000190985
-2.70247e-06
0.000191028
-2.64812e-06
0.000191059
-2.60156e-06
-2.56161e-06
0.00019108
0.000183747
-1.06685e-06
0.000184343
-3.0455e-06
0.000185183
-4.49391e-06
0.000186164
-5.52488e-06
0.000187202
-6.226e-06
0.000188235
-6.64849e-06
0.000189228
-6.85798e-06
0.000190166
-6.91148e-06
0.000191044
-6.84959e-06
0.00019186
-6.70421e-06
0.000192616
-6.50108e-06
0.000193315
-6.26013e-06
0.000193962
-5.99667e-06
0.00019456
-5.72242e-06
0.000195112
-5.44622e-06
0.000195622
-5.17462e-06
0.000196092
-4.91237e-06
0.000196526
-4.66274e-06
0.000196926
-4.42792e-06
0.000197295
-4.20915e-06
0.000197634
-4.007e-06
0.000197947
-3.82151e-06
0.000198235
-3.65232e-06
0.000198499
-3.49879e-06
0.000198742
-3.3601e-06
0.000198965
-3.23532e-06
0.000199169
-3.1235e-06
0.000199355
-3.0237e-06
0.000199525
-2.93512e-06
0.00019968
-2.85699e-06
0.000199821
-2.789e-06
0.00019995
-2.73051e-06
-2.68161e-06
0.00020007
0.000189419
-1.67421e-06
0.000190412
-4.03835e-06
0.000191501
-5.58321e-06
0.00019267
-6.69336e-06
0.000193924
-7.47966e-06
0.000195241
-7.96576e-06
0.000196601
-8.21813e-06
0.00019798
-8.29095e-06
0.000199353
-8.22244e-06
0.000200696
-8.04694e-06
0.000201989
-7.79452e-06
0.000203219
-7.48981e-06
0.000204375
-7.15272e-06