/*--------------------------------*- C++ -*----------------------------------*\
| =========                 |                                                 |
| \\      /  F ield         | OpenFOAM: The Open Source CFD Toolbox           |
|  \\    /   O peration     | Version:  2.1.1                                 |
|   \\  /    A nd           | Web:      www.OpenFOAM.org                      |
|    \\/     M anipulation  |                                                 |
\*---------------------------------------------------------------------------*/
FoamFile
{
    version     2.0;
    format      ascii;
    class       volVectorField;
    location    "0.065";
    object      U;
}
// * * * * * * * * * * * * * * * * * * * * * * * * * * * * * * * * * * * * * //

dimensions      [0 1 -1 0 0 0 0];

internalField   nonuniform List<vector> 
6820
(
(6.37588 0.503795 0)
(4.42368 0.286947 0)
(2.97195 0.0203123 0)
(2.23154 -0.0617685 0)
(1.9646 -0.0597998 0)
(1.83617 -0.0343453 0)
(1.75943 -0.0149201 0)
(1.70524 -0.00453188 0)
(1.65951 0.000194056 0)
(1.61916 0.00174129 0)
(1.58354 0.0017789 0)
(1.55211 0.0012442 0)
(1.52425 0.000572532 0)
(1.49935 -4.40234e-05 0)
(1.47677 -0.000528838 0)
(1.4559 -0.000861368 0)
(1.43623 -0.00104555 0)
(1.41724 -0.00109269 0)
(1.39848 -0.00101336 0)
(1.37947 -0.000814098 0)
(1.35976 -0.000496377 0)
(1.33884 -5.62602e-05 0)
(1.31618 0.00051568 0)
(1.29119 0.0012347 0)
(1.26319 0.00212116 0)
(1.23144 0.00320312 0)
(1.19504 0.00450425 0)
(1.15304 0.00608215 0)
(1.10408 0.00789439 0)
(1.04754 0.0102096 0)
(0.97961 0.0120998 0)
(0.905414 0.0167342 0)
(0.804113 0.00338336 0)
(8.72019 0.959806 0)
(8.76417 1.01234 0)
(7.96688 0.679596 0)
(7.05147 0.394602 0)
(6.3482 0.203277 0)
(5.83932 0.104339 0)
(5.47461 0.0590444 0)
(5.21019 0.0387566 0)
(5.01102 0.0298029 0)
(4.85483 0.0255541 0)
(4.72814 0.0231704 0)
(4.62247 0.0216115 0)
(4.53232 0.0204974 0)
(4.45398 0.0196795 0)
(4.38476 0.0190975 0)
(4.32268 0.0187353 0)
(4.26615 0.0186016 0)
(4.21387 0.0187202 0)
(4.16474 0.0191264 0)
(4.11776 0.019866 0)
(4.07198 0.0209966 0)
(4.0265 0.0225891 0)
(3.98037 0.0247296 0)
(3.93262 0.0275234 0)
(3.88219 0.0310969 0)
(3.8279 0.0356079 0)
(3.76844 0.0412358 0)
(3.70224 0.0482438 0)
(3.62749 0.0568146 0)
(3.54209 0.0675776 0)
(3.44293 0.0802676 0)
(3.32748 0.0963646 0)
(3.18906 0.119743 0)
(8.58611 0.583717 0)
(9.33109 0.763039 0)
(9.61345 0.661305 0)
(9.50195 0.528083 0)
(9.23359 0.398852 0)
(8.91839 0.301277 0)
(8.60931 0.232749 0)
(8.32955 0.183697 0)
(8.08337 0.14817 0)
(7.86848 0.122009 0)
(7.68109 0.102319 0)
(7.51725 0.0872585 0)
(7.37334 0.0756409 0)
(7.24619 0.0666684 0)
(7.13309 0.0597775 0)
(7.03172 0.0545653 0)
(6.94006 0.0507518 0)
(6.85637 0.048152 0)
(6.77911 0.0466559 0)
(6.70689 0.0462146 0)
(6.63843 0.0468315 0)
(6.57251 0.0485578 0)
(6.50797 0.0514921 0)
(6.44362 0.0557817 0)
(6.37823 0.0616281 0)
(6.3105 0.0692973 0)
(6.239 0.0791267 0)
(6.16212 0.0915705 0)
(6.07801 0.107146 0)
(5.98443 0.126753 0)
(5.87878 0.151092 0)
(5.75689 0.18218 0)
(5.61615 0.224656 0)
(8.44089 0.379947 0)
(8.94571 0.584796 0)
(9.35787 0.555902 0)
(9.58508 0.489008 0)
(9.69836 0.409675 0)
(9.73302 0.341134 0)
(9.71558 0.289258 0)
(9.66834 0.249747 0)
(9.60415 0.218996 0)
(9.5303 0.194451 0)
(9.45145 0.174299 0)
(9.37066 0.157445 0)
(9.2899 0.14321 0)
(9.21059 0.131149 0)
(9.13354 0.12099 0)
(9.05914 0.112551 0)
(8.98753 0.105706 0)
(8.91863 0.100374 0)
(8.85221 0.0965191 0)
(8.78793 0.0941492 0)
(8.72534 0.0933171 0)
(8.66393 0.094124 0)
(8.60308 0.0967243 0)
(8.54211 0.101333 0)
(8.48023 0.108238 0)
(8.41655 0.11781 0)
(8.35006 0.130527 0)
(8.27956 0.147013 0)
(8.20372 0.168049 0)
(8.12081 0.19476 0)
(8.02925 0.228566 0)
(7.92563 0.271644 0)
(7.81132 0.329361 0)
(8.40212 0.280355 0)
(8.71873 0.48152 0)
(8.99824 0.463336 0)
(9.17327 0.406473 0)
(9.29728 0.345134 0)
(9.39015 0.293444 0)
(9.45852 0.25524 0)
(9.51051 0.22655 0)
(9.55088 0.204087 0)
(9.58195 0.185985 0)
(9.6054 0.171017 0)
(9.62258 0.158434 0)
(9.63451 0.147798 0)
(9.64174 0.138821 0)
(9.64494 0.131311 0)
(9.64468 0.125147 0)
(9.64145 0.120272 0)
(9.63564 0.116674 0)
(9.62756 0.11439 0)
(9.61741 0.113496 0)
(9.60533 0.114119 0)
(9.59138 0.116431 0)
(9.57556 0.120663 0)
(9.55777 0.127111 0)
(9.53786 0.136152 0)
(9.5156 0.148259 0)
(9.4907 0.164027 0)
(9.46275 0.184209 0)
(9.43132 0.209771 0)
(9.39578 0.241946 0)
(9.3559 0.282472 0)
(9.31046 0.333358 0)
(9.2623 0.398775 0)
(8.37745 0.202506 0)
(8.60113 0.384513 0)
(8.81515 0.392224 0)
(8.94559 0.358501 0)
(9.03076 0.314833 0)
(9.09276 0.272071 0)
(9.13883 0.237023 0)
(9.17624 0.209395 0)
(9.2092 0.187425 0)
(9.23909 0.169807 0)
(9.26651 0.155484 0)
(9.29181 0.143673 0)
(9.31519 0.133887 0)
(9.33691 0.125818 0)
(9.35708 0.119241 0)
(9.37577 0.114014 0)
(9.39307 0.110071 0)
(9.40904 0.107399 0)
(9.42377 0.106034 0)
(9.43734 0.106059 0)
(9.44985 0.107603 0)
(9.4614 0.110847 0)
(9.4721 0.11603 0)
(9.48209 0.123456 0)
(9.49152 0.133509 0)
(9.50058 0.146673 0)
(9.50951 0.163548 0)
(9.51863 0.184883 0)
(9.52837 0.211631 0)
(9.53931 0.24494 0)
(9.55241 0.286399 0)
(9.56904 0.337611 0)
(9.59178 0.401059 0)
(8.36126 0.149171 0)
(8.5225 0.312416 0)
(8.69684 0.338737 0)
(8.81104 0.319915 0)
(8.88495 0.287441 0)
(8.9372 0.252066 0)
(8.97398 0.22131 0)
(9.00148 0.196403 0)
(9.02413 0.176213 0)
(9.04384 0.159736 0)
(9.06157 0.146167 0)
(9.07792 0.13489 0)
(9.09321 0.125486 0)
(9.10762 0.117681 0)
(9.12126 0.111299 0)
(9.13422 0.106237 0)
(9.14655 0.102439 0)
(9.1583 0.0998965 0)
(9.16953 0.0986387 0)
(9.18027 0.0987367 0)
(9.19061 0.100304 0)
(9.20065 0.103498 0)
(9.21049 0.108528 0)
(9.22033 0.115661 0)
(9.23038 0.125229 0)
(9.24095 0.137645 0)
(9.25248 0.153413 0)
(9.26554 0.173145 0)
(9.28093 0.197588 0)
(9.2998 0.227604 0)
(9.32369 0.264249 0)
(9.3552 0.308531 0)
(9.39682 0.361174 0)
(8.35114 0.11177 0)
(8.4672 0.252702 0)
(8.60758 0.288307 0)
(8.70876 0.280888 0)
(8.7779 0.25936 0)
(8.82873 0.232781 0)
(8.86559 0.207614 0)
(8.89302 0.185994 0)
(8.91497 0.167692 0)
(8.93346 0.152266 0)
(8.94955 0.139305 0)
(8.96394 0.12841 0)
(8.97706 0.119276 0)
(8.98918 0.111692 0)
(9.00046 0.105513 0)
(9.01104 0.100641 0)
(9.02101 0.0970219 0)
(9.03044 0.0946445 0)
(9.03939 0.0935353 0)
(9.04795 0.0937582 0)
(9.05618 0.0954148 0)
(9.06419 0.0986458 0)
(9.07211 0.103634 0)
(9.08011 0.110607 0)
(9.08841 0.119844 0)
(9.09731 0.131677 0)
(9.10723 0.146497 0)
(9.11875 0.164755 0)
(9.13262 0.186953 0)
(9.14996 0.213617 0)
(9.17215 0.245242 0)
(9.20156 0.282197 0)
(9.2401 0.324087 0)
(8.34485 0.085126 0)
(8.42918 0.204908 0)
(8.5416 0.245657 0)
(8.62979 0.247186 0)
(8.69312 0.233891 0)
(8.74142 0.213827 0)
(8.77794 0.192875 0)
(8.8059 0.173909 0)
(8.82857 0.157395 0)
(8.84776 0.143224 0)
(8.86447 0.131181 0)
(8.87937 0.12099 0)
(8.8929 0.112414 0)
(8.90535 0.105277 0)
(8.91692 0.0994576 0)
(8.92774 0.094877 0)
(8.93795 0.0914952 0)
(8.94762 0.0893083 0)
(8.95686 0.0883441 0)
(8.96574 0.0886622 0)
(8.97439 0.0903529 0)
(8.98291 0.0935388 0)
(8.99145 0.0983754 0)
(9.00022 0.105053 0)
(9.00946 0.113795 0)
(9.0195 0.12486 0)
(9.03076 0.138535 0)
(9.04382 0.155125 0)
(9.05942 0.174929 0)
(9.07857 0.198202 0)
(9.10246 0.225054 0)
(9.133 0.2554 0)
(9.17153 0.288374 0)
(8.34092 0.0659115 0)
(8.40288 0.166662 0)
(8.49271 0.208695 0)
(8.56888 0.216146 0)
(8.62635 0.208925 0)
(8.67171 0.194375 0)
(8.70728 0.177584 0)
(8.73525 0.161516 0)
(8.75819 0.147013 0)
(8.77774 0.134218 0)
(8.79483 0.123111 0)
(8.8101 0.113574 0)
(8.82401 0.105468 0)
(8.83684 0.0986819 0)
(8.8488 0.0931325 0)
(8.86006 0.088765 0)
(8.87074 0.085551 0)
(8.88094 0.0834891 0)
(8.89077 0.0826038 0)
(8.90035 0.0829449 0)
(8.90978 0.0845878 0)
(8.91921 0.0876326 0)
(8.92883 0.0922038 0)
(8.93884 0.0984484 0)
(8.94952 0.106533 0)
(8.96122 0.116639 0)
(8.97439 0.128948 0)
(8.98959 0.143629 0)
(9.00753 0.160801 0)
(9.02915 0.180495 0)
(9.05544 0.202547 0)
(9.08796 0.226565 0)
(9.12759 0.251517 0)
(8.33844 0.0517844 0)
(8.38454 0.135932 0)
(8.45637 0.17685 0)
(8.52182 0.188306 0)
(8.57372 0.185813 0)
(8.61602 0.175802 0)
(8.6503 0.162565 0)
(8.67795 0.148982 0)
(8.70096 0.136204 0)
(8.72075 0.124621 0)
(8.73816 0.11438 0)
(8.75378 0.105486 0)
(8.76805 0.0978741 0)
(8.78125 0.0914747 0)
(8.79361 0.0862306 0)
(8.80528 0.0821002 0)
(8.81641 0.0790612 0)
(8.82711 0.0771125 0)
(8.8375 0.0762735 0)
(8.84771 0.0765837 0)
(8.85786 0.0781015 0)
(8.86813 0.080903 0)
(8.87871 0.0850794 0)
(8.88981 0.0907334 0)
(8.90174 0.0979736 0)
(8.91484 0.106905 0)
(8.92956 0.117615 0)
(8.94642 0.13015 0)
(8.96608 0.144485 0)
(8.98934 0.160478 0)
(9.01703 0.177788 0)
(9.05036 0.195846 0)
(9.08985 0.213601 0)
(8.33685 0.04119 0)
(8.37164 0.11118 0)
(8.42922 0.149486 0)
(8.48521 0.163243 0)
(8.53183 0.164084 0)
(8.57106 0.157557 0)
(8.60386 0.147303 0)
(8.63103 0.135992 0)
(8.65403 0.124913 0)
(8.67403 0.114595 0)
(8.69176 0.105291 0)
(8.70775 0.0970911 0)
(8.7224 0.0899973 0)
(8.73601 0.0839847 0)
(8.74879 0.0790256 0)
(8.76091 0.0750972 0)
(8.77252 0.0721872 0)
(8.78374 0.0702966 0)
(8.79471 0.0694403 0)
(8.80555 0.0696464 0)
(8.81643 0.0709556 0)
(8.8275 0.0734188 0)
(8.83896 0.0770936 0)
(8.85106 0.0820393 0)
(8.86407 0.0883091 0)
(8.87835 0.0959393 0)
(8.8943 0.104933 0)
(8.9124 0.115239 0)
(8.93323 0.126717 0)
(8.95743 0.13911 0)
(8.98567 0.15197 0)
(9.01882 0.164646 0)
(9.05715 0.176154 0)
(8.33581 0.0330776 0)
(8.36246 0.0911147 0)
(8.40883 0.12595 0)
(8.45663 0.140714 0)
(8.49836 0.143854 0)
(8.53459 0.140023 0)
(8.56577 0.132269 0)
(8.59229 0.122956 0)
(8.61514 0.113399 0)
(8.63525 0.104226 0)
(8.65323 0.0957723 0)
(8.66957 0.0882066 0)
(8.68462 0.0815901 0)
(8.69865 0.0759368 0)
(8.71188 0.0712432 0)
(8.72448 0.0674999 0)
(8.7366 0.0646998 0)
(8.74836 0.0628422 0)
(8.75992 0.0619343 0)
(8.7714 0.0619915 0)
(8.78297 0.0630353 0)
(8.79479 0.065091 0)
(8.80707 0.0681837 0)
(8.82005 0.0723318 0)
(8.83399 0.0775387 0)
(8.84922 0.0837812 0)
(8.8661 0.0909938 0)
(8.88507 0.0990493 0)
(8.90657 0.107731 0)
(8.93115 0.116707 0)
(8.95928 0.125485 0)
(8.99157 0.1334 0)
(9.0281 0.139579 0)
(8.33512 0.0267334 0)
(8.35585 0.0747199 0)
(8.39345 0.105689 0)
(8.43425 0.120482 0)
(8.4715 0.125042 0)
(8.50485 0.12316 0)
(8.53436 0.117375 0)
(8.56008 0.109737 0)
(8.58267 0.101521 0)
(8.60281 0.0934041 0)
(8.62101 0.0857717 0)
(8.63766 0.0788385 0)
(8.65309 0.0727065 0)
(8.66755 0.0674185 0)
(8.68123 0.0629891 0)
(8.6943 0.0594204 0)
(8.70692 0.0567095 0)
(8.71922 0.0548543 0)
(8.73134 0.0538551 0)
(8.74342 0.0537148 0)
(8.75562 0.0544369 0)
(8.76812 0.0560234 0)
(8.78112 0.0584692 0)
(8.79483 0.0617568 0)
(8.80951 0.065847 0)
(8.82545 0.0706685 0)
(8.84297 0.0761034 0)
(8.86242 0.0819715 0)
(8.88419 0.0880081 0)
(8.90865 0.0938474 0)
(8.93614 0.0989932 0)
(8.96706 0.102809 0)
(9.00136 0.104553 0)
(8.33464 0.021669 0)
(8.35104 0.0611919 0)
(8.38177 0.0881865 0)
(8.41667 0.10229 0)
(8.4499 0.107563 0)
(8.48056 0.107017 0)
(8.50839 0.102749 0)
(8.53324 0.0964992 0)
(8.55547 0.0894469 0)
(8.57556 0.0822732 0)
(8.59391 0.075387 0)
(8.61084 0.0690329 0)
(8.62661 0.0633438 0)
(8.64147 0.0583859 0)
(8.65558 0.0541897 0)
(8.66911 0.0507661 0)
(8.68221 0.0481148 0)
(8.69502 0.0462307 0)
(8.70766 0.0451061 0)
(8.7203 0.0447309 0)
(8.73308 0.0450914 0)
(8.74617 0.0461672 0)
(8.75975 0.047927 0)
(8.77405 0.0503222 0)
(8.78927 0.0532791 0)
(8.80568 0.0566898 0)
(8.82355 0.0603997 0)
(8.84316 0.0641958 0)
(8.86479 0.0677909 0)
(8.88873 0.0708133 0)
(8.91518 0.0727915 0)
(8.94437 0.0731464 0)
(8.97616 0.071265 0)
(8.33431 0.0175446 0)
(8.34749 0.049901 0)
(8.37286 0.0729896 0)
(8.40285 0.0858964 0)
(8.43251 0.0913164 0)
(8.46069 0.0915834 0)
(8.4869 0.0884061 0)
(8.51085 0.0832431 0)
(8.53265 0.0771509 0)
(8.55263 0.0707871 0)
(8.57108 0.064564 0)
(8.58823 0.0587402 0)
(8.60432 0.053466 0)
(8.61955 0.0488222 0)
(8.63407 0.0448486 0)
(8.64803 0.0415603 0)
(8.66159 0.0389572 0)
(8.67486 0.03703 0)
(8.68799 0.0357625 0)
(8.70112 0.0351328 0)
(8.71439 0.0351114 0)
(8.72796 0.035659 0)
(8.74201 0.0367219 0)
(8.75672 0.0382271 0)
(8.7723 0.0400752 0)
(8.78895 0.0421326 0)
(8.8069 0.0442229 0)
(8.82637 0.0461176 0)
(8.84755 0.0475264 0)
(8.87064 0.0480927 0)
(8.89573 0.0473876 0)
(8.92296 0.0449032 0)
(8.9521 0.0401471 0)
(8.33406 0.01412 0)
(8.34485 0.0403548 0)
(8.36605 0.0596998 0)
(8.39197 0.0710631 0)
(8.41853 0.0761814 0)
(8.44447 0.0768228 0)
(8.46916 0.0743649 0)
(8.49219 0.0700133 0)
(8.51354 0.0646908 0)
(8.53337 0.0590077 0)
(8.55186 0.0533613 0)
(8.56921 0.0480092 0)
(8.58558 0.0431079 0)
(8.60114 0.0387456 0)
(8.61604 0.0349671 0)
(8.63041 0.0317893 0)
(8.64438 0.0292109 0)
(8.65807 0.0272174 0)
(8.67163 0.0257849 0)
(8.68518 0.0248802 0)
(8.69885 0.0244602 0)
(8.7128 0.0244695 0)
(8.72719 0.024837 0)
(8.74217 0.0254711 0)
(8.75791 0.0262549 0)
(8.7746 0.0270395 0)
(8.7924 0.0276385 0)
(8.81147 0.027822 0)
(8.83195 0.0273111 0)
(8.85395 0.0257775 0)
(8.87749 0.0228448 0)
(8.90261 0.0180783 0)
(8.92907 0.0110998 0)
(8.33388 0.0112219 0)
(8.34286 0.0321673 0)
(8.36081 0.0479713 0)
(8.38342 0.0575635 0)
(8.40732 0.0620294 0)
(8.43127 0.0626813 0)
(8.45456 0.0606155 0)
(8.47673 0.0568163 0)
(8.49761 0.052072 0)
(8.51726 0.0469319 0)
(8.53577 0.041766 0)
(8.55327 0.0368205 0)
(8.5699 0.0322496 0)
(8.58576 0.028142 0)
(8.60101 0.0245427 0)
(8.61574 0.0214671 0)
(8.63008 0.0189101 0)
(8.64415 0.0168514 0)
(8.65807 0.0152587 0)
(8.67196 0.014089 0)
(8.68595 0.0132874 0)
(8.70017 0.0127857 0)
(8.71476 0.0124996 0)
(8.72986 0.0123253 0)
(8.7456 0.0121352 0)
(8.76214 0.0117743 0)
(8.77959 0.011056 0)
(8.79806 0.00975908 0)
(8.81764 0.00762656 0)
(8.83837 0.00436587 0)
(8.86023 -0.00034388 0)
(8.8832 -0.00686361 0)
(8.90703 -0.0154768 0)
(8.33375 0.00872238 0)
(8.34136 0.0250342 0)
(8.35679 0.0375052 0)
(8.37671 0.0451824 0)
(8.39837 0.0487228 0)
(8.42059 0.0490838 0)
(8.44265 0.0471261 0)
(8.46401 0.0436443 0)
(8.48445 0.0392985 0)
(8.50392 0.0345689 0)
(8.52244 0.0297886 0)
(8.54008 0.0251828 0)
(8.55692 0.0208949 0)
(8.57307 0.0170078 0)
(8.58863 0.0135623 0)
(8.60369 0.0105691 0)
(8.61837 0.00801792 0)
(8.63276 0.00588197 0)
(8.64698 0.00412166 0)
(8.66114 0.00268503 0)
(8.67535 0.00150809 0)
(8.68974 0.0005134 0)
(8.70442 -0.00039194 0)
(8.7195 -0.00131867 0)
(8.7351 -0.00239805 0)
(8.75133 -0.00378423 0)
(8.76826 -0.00565634 0)
(8.78598 -0.00821909 0)
(8.80452 -0.0117021 0)
(8.82388 -0.0163578 0)
(8.84401 -0.0224528 0)
(8.86484 -0.0302768 0)
(8.88613 -0.0400379 0)
(8.33365 0.00652439 0)
(8.34023 0.0187132 0)
(8.35371 0.0280434 0)
(8.37148 0.0337177 0)
(8.39129 0.036121 0)
(8.41205 0.0359423 0)
(8.43304 0.0338492 0)
(8.4537 0.0304748 0)
(8.47374 0.0263614 0)
(8.49304 0.0219174 0)
(8.51156 0.0174328 0)
(8.52933 0.0131057 0)
(8.54638 0.00906298 0)
(8.56278 0.00537659 0)
(8.57862 0.00207898 0)
(8.59397 -0.000825951 0)
(8.60893 -0.00335564 0)
(8.62359 -0.00554391 0)
(8.63805 -0.00743788 0)
(8.6524 -0.00909711 0)
(8.66675 -0.0105929 0)
(8.68121 -0.0120094 0)
(8.69586 -0.0134442 0)
(8.7108 -0.0150108 0)
(8.72612 -0.0168392 0)
(8.7419 -0.0190774 0)
(8.7582 -0.0218918 0)
(8.77505 -0.0254665 0)
(8.79245 -0.0300017 0)
(8.81039 -0.0357092 0)
(8.82878 -0.0428046 0)
(8.84753 -0.0515173 0)
(8.86644 -0.0619881 0)
(8.33357 0.00455245 0)
(8.33938 0.0130079 0)
(8.35137 0.0193604 0)
(8.36746 0.0229765 0)
(8.38578 0.0240765 0)
(8.40534 0.0231516 0)
(8.42544 0.0207127 0)
(8.44551 0.0172572 0)
(8.46523 0.0132207 0)
(8.4844 0.0089398 0)
(8.50295 0.00465697 0)
(8.52085 0.000538167 0)
(8.5381 -0.00331188 0)
(8.55475 -0.00683643 0)
(8.57085 -0.0100146 0)
(8.58647 -0.0128519 0)
(8.60167 -0.0153738 0)
(8.61656 -0.0176216 0)
(8.63119 -0.0196493 0)
(8.64568 -0.0215222 0)
(8.66009 -0.0233168 0)
(8.67452 -0.0251206 0)
(8.68905 -0.0270327 0)
(8.70376 -0.0291651 0)
(8.7187 -0.0316421 0)
(8.73394 -0.0346015 0)
(8.7495 -0.0381935 0)
(8.7654 -0.0425789 0)
(8.78162 -0.047927 0)
(8.79812 -0.0544113 0)
(8.81481 -0.0622008 0)
(8.83159 -0.0714713 0)
(8.84827 -0.0823116 0)
(8.33351 0.0027459 0)
(8.33875 0.00775633 0)
(8.34963 0.0112595 0)
(8.36444 0.012779 0)
(8.38159 0.0124428 0)
(8.40022 0.0106009 0)
(8.41962 0.00764017 0)
(8.43924 0.00394467 0)
(8.45871 -0.000144237 0)
(8.47782 -0.00435851 0)
(8.49643 -0.00850466 0)
(8.51447 -0.0124522 0)
(8.53192 -0.0161224 0)
(8.5488 -0.0194777 0)
(8.56513 -0.0225117 0)
(8.58098 -0.0252422 0)
(8.59639 -0.0277044 0)
(8.61144 -0.0299479 0)
(8.6262 -0.0320336 0)
(8.64074 -0.0340324 0)
(8.65513 -0.0360246 0)
(8.66946 -0.0380994 0)
(8.68378 -0.0403553 0)
(8.69816 -0.0429 0)
(8.71264 -0.0458501 0)
(8.72725 -0.0493309 0)
(8.74201 -0.0534748 0)
(8.75692 -0.0584194 0)
(8.77195 -0.0643045 0)
(8.78703 -0.0712687 0)
(8.80209 -0.0794411 0)
(8.81702 -0.0889525 0)
(8.83166 -0.0998512 0)
(8.33347 0.00105364 0)
(8.3383 0.00281896 0)
(8.34837 0.0035604 0)
(8.36225 0.0029468 0)
(8.37856 0.00106048 0)
(8.3965 -0.00184766 0)
(8.41541 -0.00548901 0)
(8.43474 -0.00957522 0)
(8.4541 -0.0138495 0)
(8.47322 -0.0181102 0)
(8.49194 -0.0222137 0)
(8.51017 -0.0260675 0)
(8.52785 -0.0296213 0)
(8.54497 -0.0328593 0)
(8.56154 -0.0357916 0)
(8.5776 -0.0384489 0)
(8.5932 -0.0408765 0)
(8.60839 -0.043132 0)
(8.62323 -0.0452823 0)
(8.63778 -0.0474021 0)
(8.65211 -0.0495738 0)
(8.66627 -0.0518861 0)
(8.68032 -0.0544344 0)
(8.6943 -0.0573198 0)
(8.70825 -0.0606493 0)
(8.72219 -0.0645338 0)
(8.73612 -0.0690875 0)
(8.75002 -0.0744251 0)
(8.76386 -0.0806589 0)
(8.77758 -0.0878962 0)
(8.79109 -0.0962318 0)
(8.8043 -0.105759 0)
(8.81707 -0.116494 0)
(8.33345 -0.000567767 0)
(8.338 -0.00192602 0)
(8.34754 -0.00390116 0)
(8.3608 -0.00668985 0)
(8.37655 -0.0102236 0)
(8.39406 -0.0143175 0)
(8.4127 -0.0187585 0)
(8.43189 -0.0233366 0)
(8.45124 -0.0278691 0)
(8.47047 -0.0322167 0)
(8.48936 -0.0362863 0)
(8.50781 -0.0400257 0)
(8.52573 -0.0434171 0)
(8.54309 -0.04647 0)
(8.55989 -0.0492152 0)
(8.57614 -0.0516989 0)
(8.59189 -0.0539794 0)
(8.60717 -0.0561236 0)
(8.62204 -0.0582051 0)
(8.63655 -0.0603031 0)
(8.65074 -0.0625014 0)
(8.66468 -0.0648876 0)
(8.6784 -0.0675531 0)
(8.69193 -0.0705918 0)
(8.70531 -0.0741001 0)
(8.71854 -0.078175 0)
(8.73161 -0.0829129 0)
(8.74451 -0.0884075 0)
(8.7572 -0.0947471 0)
(8.76962 -0.102012 0)
(8.7817 -0.110269 0)
(8.79335 -0.119582 0)
(8.80446 -0.129945 0)
(8.33343 -0.00215897 0)
(8.33783 -0.00659346 0)
(8.34708 -0.011288 0)
(8.36001 -0.0163149 0)
(8.3755 -0.0216022 0)
(8.39285 -0.0270116 0)
(8.41144 -0.0323922 0)
(8.43071 -0.0376037 0)
(8.45024 -0.0425314 0)
(8.4697 -0.0470952 0)
(8.48888 -0.0512509 0)
(8.50764 -0.0549862 0)
(8.52586 -0.0583154 0)
(8.54351 -0.0612732 0)
(8.56057 -0.0639102 0)
(8.57703 -0.0662883 0)
(8.59293 -0.0684776 0)
(8.6083 -0.0705537 0)
(8.62317 -0.0725962 0)
(8.63761 -0.0746873 0)
(8.65164 -0.0769114 0)
(8.66531 -0.0793539 0)
(8.67866 -0.0821013 0)
(8.69172 -0.0852396 0)
(8.70449 -0.0888545 0)
(8.71699 -0.0930291 0)
(8.72922 -0.0978436 0)
(8.74114 -0.103372 0)
(8.75272 -0.109683 0)
(8.76391 -0.116832 0)
(8.77466 -0.124865 0)
(8.78487 -0.133819 0)
(8.79446 -0.143674 0)
(8.33343 -0.00376011 0)
(8.33778 -0.0112952 0)
(8.34696 -0.0187572 0)
(8.35984 -0.0260959 0)
(8.37534 -0.033219 0)
(8.39279 -0.0400143 0)
(8.41156 -0.0463776 0)
(8.43108 -0.0522282 0)
(8.45092 -0.0575151 0)
(8.47073 -0.0622187 0)
(8.49028 -0.0663486 0)
(8.50939 -0.0699389 0)
(8.52795 -0.0730424 0)
(8.54591 -0.0757254 0)
(8.56321 -0.0780637 0)
(8.57988 -0.0801387 0)
(8.59591 -0.0820352 0)
(8.61133 -0.0838393 0)
(8.62619 -0.0856374 0)
(8.64051 -0.0875152 0)
(8.65435 -0.0895575 0)
(8.66773 -0.0918472 0)
(8.68068 -0.0944654 0)
(8.69323 -0.0974903 0)
(8.7054 -0.100997 0)
(8.71718 -0.105056 0)
(8.72857 -0.109732 0)
(8.73955 -0.115084 0)
(8.7501 -0.12116 0)
(8.76016 -0.128 0)
(8.76969 -0.13563 0)
(8.77862 -0.144072 0)
(8.7869 -0.15329 0)
(8.33344 -0.00541203 0)
(8.33786 -0.0161519 0)
(8.3472 -0.0264973 0)
(8.36032 -0.0362834 0)
(8.37616 -0.0453995 0)
(8.39403 -0.0537593 0)
(8.4133 -0.0613028 0)
(8.43337 -0.0680044 0)
(8.45377 -0.0738703 0)
(8.47414 -0.078934 0)
(8.49424 -0.083252 0)
(8.51385 -0.086899 0)
(8.53287 -0.0899619 0)
(8.55121 -0.092536 0)
(8.56883 -0.0947204 0)
(8.58572 -0.0966154 0)
(8.6019 -0.0983203 0)
(8.61738 -0.0999323 0)
(8.63221 -0.101545 0)
(8.64641 -0.103248 0)
(8.66002 -0.105128 0)
(8.67307 -0.107265 0)
(8.68561 -0.109736 0)
(8.69764 -0.112612 0)
(8.70918 -0.115959 0)
(8.72024 -0.119837 0)
(8.73082 -0.124297 0)
(8.7409 -0.129384 0)
(8.75045 -0.135132 0)
(8.75945 -0.141566 0)
(8.76785 -0.148696 0)
(8.77561 -0.156529 0)
(8.78268 -0.165025 0)
(8.33345 -0.00715952 0)
(8.33806 -0.0212845 0)
(8.34778 -0.0346616 0)
(8.36142 -0.0469911 0)
(8.37787 -0.0581257 0)
(8.39642 -0.0679919 0)
(8.41639 -0.0765721 0)
(8.43719 -0.0839046 0)
(8.4583 -0.0900688 0)
(8.47936 -0.0951696 0)
(8.5001 -0.0993281 0)
(8.5203 -0.102674 0)
(8.53983 -0.10534 0)
(8.5586 -0.107457 0)
(8.57657 -0.109153 0)
(8.59372 -0.110549 0)
(8.61007 -0.11176 0)
(8.62562 -0.112893 0)
(8.64042 -0.114048 0)
(8.65449 -0.115318 0)
(8.66789 -0.116787 0)
(8.68063 -0.118534 0)
(8.69274 -0.120629 0)
(8.70427 -0.123138 0)
(8.71521 -0.126116 0)
(8.72559 -0.129613 0)
(8.7354 -0.13367 0)
(8.74463 -0.138318 0)
(8.75328 -0.14358 0)
(8.76131 -0.149469 0)
(8.76872 -0.155986 0)
(8.77546 -0.163128 0)
(8.78151 -0.170849 0)
(8.33349 -0.00905949 0)
(8.33843 -0.0268775 0)
(8.34884 -0.0435925 0)
(8.36343 -0.0587895 0)
(8.38097 -0.0723115 0)
(8.40068 -0.0841068 0)
(8.42186 -0.0941886 0)
(8.44381 -0.102637 0)
(8.46601 -0.109579 0)
(8.48807 -0.11517 0)
(8.50969 -0.11958 0)
(8.53066 -0.122984 0)
(8.55083 -0.125559 0)
(8.57012 -0.127471 0)
(8.58849 -0.128882 0)
(8.60592 -0.129937 0)
(8.62243 -0.130774 0)
(8.63804 -0.131513 0)
(8.65279 -0.132267 0)
(8.66671 -0.133134 0)
(8.67984 -0.134201 0)
(8.69224 -0.135548 0)
(8.70391 -0.137242 0)
(8.71491 -0.139342 0)
(8.72524 -0.141897 0)
(8.73493 -0.144949 0)
(8.74398 -0.148529 0)
(8.7524 -0.152659 0)
(8.76017 -0.157352 0)
(8.7673 -0.162612 0)
(8.77376 -0.168431 0)
(8.77954 -0.174797 0)
(8.78461 -0.181663 0)
(8.33353 -0.0111718 0)
(8.33892 -0.0330451 0)
(8.35025 -0.0532878 0)
(8.36604 -0.0713018 0)
(8.38489 -0.0869101 0)
(8.40597 -0.100115 0)
(8.42852 -0.111022 0)
(8.45181 -0.119826 0)
(8.4753 -0.126766 0)
(8.49854 -0.13209 0)
(8.52123 -0.136045 0)
(8.54314 -0.138867 0)
(8.56411 -0.140778 0)
(8.58407 -0.141982 0)
(8.60297 -0.142663 0)
(8.62079 -0.142986 0)
(8.63756 -0.143099 0)
(8.65331 -0.143133 0)
(8.66807 -0.143203 0)
(8.68189 -0.14341 0)
(8.69482 -0.14384 0)
(8.7069 -0.144569 0)
(8.71818 -0.14566 0)
(8.72869 -0.147166 0)
(8.73846 -0.149131 0)
(8.74752 -0.151588 0)
(8.75588 -0.154559 0)
(8.76355 -0.158061 0)
(8.77055 -0.162098 0)
(8.77687 -0.166667 0)
(8.78251 -0.171755 0)
(8.78748 -0.177347 0)
(8.79178 -0.183391 0)
(8.33361 -0.0136104 0)
(8.3398 -0.0402599 0)
(8.35272 -0.0648487 0)
(8.37057 -0.086657 0)
(8.39165 -0.105498 0)
(8.41498 -0.121351 0)
(8.43966 -0.134306 0)
(8.46491 -0.144583 0)
(8.49011 -0.15248 0)
(8.51484 -0.158318 0)
(8.53879 -0.162422 0)
(8.56174 -0.165107 0)
(8.58357 -0.166665 0)
(8.60419 -0.167358 0)
(8.62358 -0.167423 0)
(8.64174 -0.167064 0)
(8.65871 -0.166458 0)
(8.67452 -0.165758 0)
(8.68923 -0.165093 0)
(8.70288 -0.164571 0)
(8.71555 -0.164284 0)
(8.72727 -0.164305 0)
(8.73811 -0.164697 0)
(8.7481 -0.165507 0)
(8.75728 -0.166772 0)
(8.76569 -0.168518 0)
(8.77335 -0.170763 0)
(8.78029 -0.173513 0)
(8.78651 -0.176769 0)
(8.79204 -0.18052 0)
(8.79688 -0.184749 0)
(8.80104 -0.189435 0)
(8.80452 -0.194527 0)
(8.33367 -0.0164364 0)
(8.34063 -0.0482903 0)
(8.35517 -0.0769235 0)
(8.37506 -0.101446 0)
(8.39837 -0.121886 0)
(8.42407 -0.138498 0)
(8.45118 -0.151618 0)
(8.47878 -0.161663 0)
(8.50619 -0.169066 0)
(8.53293 -0.174239 0)
(8.55865 -0.177564 0)
(8.58313 -0.179395 0)
(8.60622 -0.18005 0)
(8.62787 -0.179814 0)
(8.64806 -0.178936 0)
(8.66682 -0.177634 0)
(8.68419 -0.176094 0)
(8.70023 -0.174477 0)
(8.71501 -0.172916 0)
(8.72862 -0.171523 0)
(8.74111 -0.170391 0)
(8.75256 -0.169593 0)
(8.76303 -0.169188 0)
(8.77257 -0.169221 0)
(8.78124 -0.169725 0)
(8.78909 -0.170722 0)
(8.79614 -0.172224 0)
(8.80243 -0.174233 0)
(8.808 -0.176744 0)
(8.81286 -0.179745 0)
(8.81704 -0.183214 0)
(8.82056 -0.18713 0)
(8.82346 -0.19144 0)
(8.33392 -0.0200345 0)
(8.34293 -0.0592242 0)
(8.3611 -0.0947623 0)
(8.38516 -0.125431 0)
(8.41251 -0.151015 0)
(8.44187 -0.171549 0)
(8.47219 -0.187343 0)
(8.50252 -0.198959 0)
(8.53224 -0.20703 0)
(8.56092 -0.212167 0)
(8.58825 -0.214943 0)
(8.61406 -0.21587 0)
(8.63823 -0.215397 0)
(8.66072 -0.213903 0)
(8.68155 -0.211707 0)
(8.70075 -0.209074 0)
(8.71839 -0.206223 0)
(8.73454 -0.203331 0)
(8.7493 -0.200541 0)
(8.76275 -0.197967 0)
(8.77497 -0.195698 0)
(8.78605 -0.193805 0)
(8.79606 -0.192337 0)
(8.80506 -0.191334 0)
(8.81313 -0.190819 0)
(8.82031 -0.190808 0)
(8.82665 -0.191306 0)
(8.8322 -0.19231 0)
(8.83699 -0.193811 0)
(8.84106 -0.195793 0)
(8.84444 -0.198232 0)
(8.84715 -0.201104 0)
(8.84923 -0.204352 0)
(8.33388 -0.0241371 0)
(8.34372 -0.0695784 0)
(8.36431 -0.108175 0)
(8.39178 -0.139669 0)
(8.42324 -0.165127 0)
(8.45717 -0.185208 0)
(8.49212 -0.200467 0)
(8.52679 -0.211547 0)
(8.5604 -0.219069 0)
(8.59244 -0.223602 0)
(8.62259 -0.225683 0)
(8.65065 -0.225811 0)
(8.67658 -0.224432 0)
(8.70038 -0.22194 0)
(8.72212 -0.218677 0)
(8.74189 -0.214932 0)
(8.75981 -0.210949 0)
(8.776 -0.206925 0)
(8.79059 -0.203022 0)
(8.8037 -0.199366 0)
(8.81544 -0.196054 0)
(8.82592 -0.193159 0)
(8.83523 -0.190736 0)
(8.84347 -0.188818 0)
(8.8507 -0.18743 0)
(8.857 -0.18658 0)
(8.86243 -0.18627 0)
(8.86705 -0.186494 0)
(8.87089 -0.18724 0)
(8.87401 -0.18849 0)
(8.87647 -0.190218 0)
(8.87829 -0.1924 0)
(8.87955 -0.194975 0)
(8.33499 -0.0310779 0)
(8.35146 -0.0919953 0)
(8.38077 -0.144999 0)
(8.41576 -0.187968 0)
(8.45296 -0.221258 0)
(8.49143 -0.245674 0)
(8.52999 -0.262528 0)
(8.56755 -0.273294 0)
(8.60347 -0.27925 0)
(8.63733 -0.281469 0)
(8.66887 -0.280858 0)
(8.69794 -0.278158 0)
(8.72454 -0.273969 0)
(8.74872 -0.268769 0)
(8.77058 -0.262944 0)
(8.79028 -0.256797 0)
(8.80796 -0.250571 0)
(8.82378 -0.244452 0)
(8.83791 -0.238587 0)
(8.8505 -0.233085 0)
(8.86168 -0.228029 0)
(8.87159 -0.223475 0)
(8.88034 -0.219463 0)
(8.88803 -0.216015 0)
(8.89476 -0.213143 0)
(8.90059 -0.210848 0)
(8.9056 -0.209125 0)
(8.90984 -0.207965 0)
(8.91338 -0.207354 0)
(8.91626 -0.207276 0)
(8.91853 -0.207709 0)
(8.92026 -0.208633 0)
(8.92147 -0.209987 0)
(8.33404 -0.0361164 0)
(8.35001 -0.0983152 0)
(8.38418 -0.146742 0)
(8.42729 -0.186114 0)
(8.47382 -0.218408 0)
(8.52133 -0.243366 0)
(8.56768 -0.261437 0)
(8.61167 -0.27352 0)
(8.65293 -0.280467 0)
(8.69139 -0.283151 0)
(8.72706 -0.282458 0)
(8.76008 -0.279203 0)
(8.79061 -0.274095 0)
(8.81884 -0.267736 0)
(8.84491 -0.260619 0)
(8.86899 -0.253138 0)
(8.89121 -0.245601 0)
(8.91171 -0.238241 0)
(8.93062 -0.231231 0)
(8.94805 -0.224697 0)
(8.9641 -0.218721 0)
(8.97889 -0.21336 0)
(8.9925 -0.208642 0)
(9.00502 -0.204581 0)
(9.01653 -0.201173 0)
(9.02709 -0.198408 0)
(9.03676 -0.196271 0)
(9.04561 -0.194743 0)
(9.05369 -0.193807 0)
(9.06104 -0.193448 0)
(9.06773 -0.193658 0)
(9.07383 -0.194428 0)
(9.07945 -0.195715 0)
(8.3396 -0.0603054 0)
(8.37718 -0.169239 0)
(8.42665 -0.247349 0)
(8.47679 -0.30024 0)
(8.5296 -0.335006 0)
(8.58655 -0.356019 0)
(8.64605 -0.367369 0)
(8.70677 -0.372144 0)
(8.76777 -0.372301 0)
(8.82797 -0.369171 0)
(8.88635 -0.363703 0)
(8.94218 -0.356573 0)
(8.99494 -0.34829 0)
(9.04427 -0.339251 0)
(9.09001 -0.329775 0)
(9.13212 -0.320128 0)
(9.17066 -0.310531 0)
(9.20576 -0.301164 0)
(9.23761 -0.292173 0)
(9.26642 -0.28367 0)
(9.29241 -0.275738 0)
(9.31581 -0.268434 0)
(9.33684 -0.261793 0)
(9.35569 -0.255831 0)
(9.37255 -0.25055 0)
(9.38759 -0.245942 0)
(9.40094 -0.241993 0)
(9.41273 -0.238688 0)
(9.42307 -0.236021 0)
(9.43204 -0.233986 0)
(9.43976 -0.232633 0)
(9.44629 -0.231957 0)
(9.45184 -0.232139 0)
(8.33761 -0.0463859 0)
(8.39361 -0.120534 0)
(8.49403 -0.184259 0)
(8.60904 -0.24579 0)
(8.73113 -0.298645 0)
(8.85481 -0.339671 0)
(8.97319 -0.369601 0)
(9.08214 -0.389334 0)
(9.17946 -0.400028 0)
(9.26394 -0.403273 0)
(9.33533 -0.400694 0)
(9.39406 -0.393755 0)
(9.44098 -0.383718 0)
(9.47721 -0.371633 0)
(9.50395 -0.358342 0)
(9.5224 -0.344501 0)
(9.53374 -0.330609 0)
(9.53901 -0.317036 0)
(9.53918 -0.304044 0)
(9.53506 -0.291812 0)
(9.52738 -0.280451 0)
(9.51673 -0.270018 0)
(9.50363 -0.260533 0)
(9.4885 -0.251984 0)
(9.47168 -0.244339 0)
(9.45345 -0.237547 0)
(9.43402 -0.23155 0)
(9.41356 -0.22629 0)
(9.3922 -0.221717 0)
(9.36993 -0.217794 0)
(9.34692 -0.214611 0)
(9.32284 -0.212109 0)
(9.29844 -0.211351 0)
(8.40922 -0.221152 0)
(8.63497 -0.427991 0)
(8.83332 -0.522152 0)
(8.97735 -0.582698 0)
(9.07142 -0.615443 0)
(9.11452 -0.625999 0)
(9.11096 -0.621948 0)
(9.07012 -0.607361 0)
(9.00083 -0.585064 0)
(8.91051 -0.557618 0)
(8.8056 -0.527076 0)
(8.69143 -0.495014 0)
(8.57214 -0.462653 0)
(8.45089 -0.430905 0)
(8.33003 -0.400416 0)
(8.21122 -0.371618 0)
(8.09559 -0.344771 0)
(7.98388 -0.320007 0)
(7.87651 -0.297359 0)
(7.77367 -0.276793 0)
(7.67539 -0.258226 0)
(7.58159 -0.241546 0)
(7.49212 -0.226621 0)
(7.40675 -0.213306 0)
(7.32525 -0.201449 0)
(7.24736 -0.190899 0)
(7.17284 -0.181493 0)
(7.10139 -0.173074 0)
(7.03273 -0.165456 0)
(6.96644 -0.158462 0)
(6.90216 -0.151981 0)
(6.83878 -0.145092 0)
(6.77676 -0.141576 0)
(8.13712 -0.207085 0)
(7.84795 -0.387877 0)
(7.38603 -0.439185 0)
(6.86106 -0.439799 0)
(6.36198 -0.408501 0)
(5.89164 -0.359568 0)
(5.45264 -0.305266 0)
(5.05233 -0.251983 0)
(4.69177 -0.202929 0)
(4.36895 -0.159719 0)
(4.0815 -0.122796 0)
(3.82657 -0.0919351 0)
(3.60095 -0.0665995 0)
(3.40149 -0.0461026 0)
(3.22516 -0.0297241 0)
(3.06917 -0.0167826 0)
(2.93096 -0.00666969 0)
(2.80824 0.00113889 0)
(2.69896 0.0070842 0)
(2.60132 0.0115311 0)
(2.51375 0.0147784 0)
(2.43486 0.0170694 0)
(2.36347 0.0186026 0)
(2.29855 0.0195406 0)
(2.23921 0.0200227 0)
(2.18471 0.02017 0)
(2.13439 0.0201158 0)
(2.08782 0.0199939 0)
(2.04443 0.0200518 0)
(2.00443 0.020624 0)
(1.96681 0.0220736 0)
(1.93391 0.027273 0)
(1.90335 0.0217281 0)
(0.723966 0.0307727 0)
(1.21192 0.54357 0)
(2.2814 1.20002 0)
(3.38372 1.7343 0)
(4.37135 2.00483 0)
(5.222 1.97298 0)
(5.92539 1.65532 0)
(6.47448 1.12253 0)
(6.89029 0.456424 0)
(7.19629 -0.280612 0)
(7.31632 -0.999726 0)
(7.22363 -1.60803 0)
(7.13371 -2.13859 0)
(7.31085 -2.7208 0)