/*--------------------------------*- C++ -*----------------------------------*\
| =========                 |                                                 |
| \\      /  F ield         | OpenFOAM: The Open Source CFD Toolbox           |
|  \\    /   O peration     | Version:  2.1.1                                 |
|   \\  /    A nd           | Web:      www.OpenFOAM.org                      |
|    \\/     M anipulation  |                                                 |
\*---------------------------------------------------------------------------*/
FoamFile
{
    version     2.0;
    format      ascii;
    class       volScalarField;
    location    "0.175";
    object      nuSgs;
}
// * * * * * * * * * * * * * * * * * * * * * * * * * * * * * * * * * * * * * //

dimensions      [0 2 -1 0 0 0 0];

internalField   nonuniform List<scalar> 
6820
(
0.000556014
0.000457487
0.000368384
0.000306587
0.000269636
0.000244286
0.00022572
0.000211608
0.000200291
0.000190862
0.000182807
0.000175796
0.00016961
0.000164094
0.000159137
0.000154659
0.000150592
0.000146891
0.000143525
0.000140462
0.000137681
0.000135164
0.000132903
0.000130893
0.000129133
0.000127626
0.00012638
0.000125414
0.000124745
0.000124442
0.000124507
0.00012496
0.000124897
0.000103472
0.000170598
0.000223556
0.000239947
0.000235258
0.000224988
0.000213405
0.000202247
0.000192149
0.000183126
0.000175059
0.000167811
0.000161259
0.000155301
0.000149851
0.000144841
0.00014021
0.000135914
0.000131914
0.000128174
0.000124665
0.00012137
0.000118269
0.000115342
0.000112573
0.000109946
0.000107449
0.000105061
0.000102784
0.000100525
9.84286e-05
9.58421e-05
9.4059e-05
3.6779e-05
2.85072e-05
4.54857e-05
8.20265e-05
0.000107553
0.000123062
0.000131433
0.000135253
0.000136344
0.000135773
0.000134178
0.000131952
0.000129341
0.000126505
0.000123547
0.000120539
0.000117525
0.000114537
0.000111588
0.000108691
0.000105854
0.000103074
0.000100347
9.76738e-05
9.50474e-05
9.24609e-05
8.99049e-05
8.73622e-05
8.48158e-05
8.22071e-05
7.95158e-05
7.64821e-05
7.31773e-05
2.07364e-05
2.87144e-05
2.66301e-05
1.52452e-05
3.73701e-06
1.3413e-05
2.50408e-05
3.46654e-05
4.23873e-05
4.8483e-05
5.32289e-05
5.68691e-05
5.96048e-05
6.15959e-05
6.29715e-05
6.38395e-05
6.4288e-05
6.43876e-05
6.4197e-05
6.37642e-05
6.31268e-05
6.23072e-05
6.13229e-05
6.01887e-05
5.89197e-05
5.75233e-05
5.60017e-05
5.43486e-05
5.25538e-05
5.05851e-05
4.84184e-05
4.60003e-05
4.33586e-05
1.44122e-05
1.76231e-05
2.26382e-05
2.4326e-05
2.40141e-05
2.20869e-05
1.92863e-05
1.61507e-05
1.29103e-05
9.7119e-06
6.66098e-06
3.83442e-06
1.40112e-06
1.55103e-06
3.52049e-06
5.35373e-06
6.96057e-06
8.33798e-06
9.49418e-06
1.04415e-05
1.11899e-05
1.17599e-05
1.21689e-05
1.24211e-05
1.25243e-05
1.2481e-05
1.22912e-05
1.19504e-05
1.14523e-05
1.07826e-05
9.93297e-06
8.90861e-06
7.73415e-06
1.09071e-05
1.25408e-05
1.38801e-05
1.43739e-05
1.51291e-05
1.57345e-05
1.6081e-05
1.6266e-05
1.62966e-05
1.618e-05
1.59418e-05
1.56068e-05
1.51991e-05
1.4738e-05
1.42402e-05
1.37229e-05
1.32008e-05
1.26867e-05
1.21912e-05
1.17219e-05
1.12844e-05
1.08822e-05
1.0517e-05
1.01896e-05
9.90387e-06
9.66341e-06
9.4718e-06
9.33338e-06
9.25069e-06
9.22581e-06
9.25139e-06
9.30441e-06
9.35846e-06
8.22509e-06
9.46904e-06
1.03174e-05
1.01224e-05
9.92825e-06
9.73756e-06
9.53497e-06
9.42425e-06
9.39547e-06
9.40518e-06
9.4272e-06
9.44456e-06
9.44619e-06
9.42904e-06
9.39311e-06
9.33838e-06
9.26571e-06
9.17682e-06
9.07377e-06
8.95898e-06
8.83557e-06
8.70977e-06
8.58802e-06
8.47266e-06
8.36706e-06
8.27349e-06
8.19363e-06
8.12881e-06
8.0782e-06
8.03818e-06
7.99872e-06
7.93681e-06
7.83401e-06
6.33451e-06
7.44667e-06
8.28916e-06
8.16587e-06
7.86086e-06
7.52385e-06
7.14815e-06
6.82608e-06
6.57658e-06
6.37859e-06
6.21911e-06
6.08921e-06
5.98031e-06
5.88598e-06
5.80209e-06
5.72599e-06
5.65578e-06
5.59037e-06
5.52917e-06
5.47224e-06
5.42043e-06
5.37482e-06
5.33562e-06
5.3039e-06
5.28121e-06
5.26826e-06
5.26504e-06
5.27062e-06
5.28214e-06
5.29371e-06
5.29545e-06
5.26862e-06
5.19996e-06
4.96717e-06
5.89162e-06
6.61659e-06
6.62863e-06
6.46966e-06
6.26822e-06
5.99138e-06
5.71306e-06
5.4724e-06
5.26576e-06
5.0884e-06
4.93698e-06
4.80675e-06
4.69368e-06
4.5951e-06
4.50913e-06
4.4344e-06
4.36995e-06
4.31517e-06
4.26981e-06
4.2332e-06
4.20552e-06
4.18671e-06
4.17674e-06
4.17568e-06
4.18316e-06
4.198e-06
4.21801e-06
4.23933e-06
4.25556e-06
4.25785e-06
4.23151e-06
4.16722e-06
3.95462e-06
4.73403e-06
5.3839e-06
5.47899e-06
5.38984e-06
5.25064e-06
5.04231e-06
4.82192e-06
4.62827e-06
4.4609e-06
4.31549e-06
4.19002e-06
4.08158e-06
3.98739e-06
3.90559e-06
3.83493e-06
3.77452e-06
3.72369e-06
3.68205e-06
3.64919e-06
3.62496e-06
3.6091e-06
3.60107e-06
3.60038e-06
3.60657e-06
3.61875e-06
3.63524e-06
3.65334e-06
3.66903e-06
3.67629e-06
3.66767e-06
3.63202e-06
3.56278e-06
3.18823e-06
3.85438e-06
4.43906e-06
4.58088e-06
4.54456e-06
4.45803e-06
4.30908e-06
4.13675e-06
3.97692e-06
3.83448e-06
3.70833e-06
3.59867e-06
3.50432e-06
3.42337e-06
3.35432e-06
3.29609e-06
3.24773e-06
3.20858e-06
3.17808e-06
3.15579e-06
3.14129e-06
3.13411e-06
3.13368e-06
3.13934e-06
3.15028e-06
3.16516e-06
3.18198e-06
3.19785e-06
3.20891e-06
3.20998e-06
3.19515e-06
3.1563e-06
3.08938e-06
2.59494e-06
3.17138e-06
3.70765e-06
3.88926e-06
3.90263e-06
3.85809e-06
3.75169e-06
3.61394e-06
3.47918e-06
3.35649e-06
3.24677e-06
3.15106e-06
3.06899e-06
2.99924e-06
2.94061e-06
2.89215e-06
2.85306e-06
2.82263e-06
2.80028e-06
2.78547e-06
2.77772e-06
2.77641e-06
2.78081e-06
2.79001e-06
2.80288e-06
2.81789e-06
2.833e-06
2.84557e-06
2.85224e-06
2.84885e-06
2.83097e-06
2.79298e-06
2.73273e-06
2.12519e-06
2.63303e-06
3.13331e-06
3.34366e-06
3.39582e-06
3.3847e-06
3.31454e-06
3.20975e-06
3.10056e-06
2.99767e-06
2.90343e-06
2.81978e-06
2.74741e-06
2.68585e-06
2.63438e-06
2.59236e-06
2.55913e-06
2.53404e-06
2.5165e-06
2.50592e-06
2.50166e-06
2.50301e-06
2.50914e-06
2.51905e-06
2.53154e-06
2.54514e-06
2.55795e-06
2.5676e-06
2.57134e-06
2.56593e-06
2.54821e-06
2.51445e-06
2.46409e-06
1.74542e-06
2.20213e-06
2.67527e-06
2.90805e-06
2.99371e-06
3.01219e-06
2.97269e-06
2.89551e-06
2.80734e-06
2.7203e-06
2.63844e-06
2.56456e-06
2.50011e-06
2.4452e-06
2.39945e-06
2.3624e-06
2.33347e-06
2.31208e-06
2.29762e-06
2.28946e-06
2.28694e-06
2.28931e-06
2.29571e-06
2.30515e-06
2.31643e-06
2.32816e-06
2.33863e-06
2.34589e-06
2.34776e-06
2.34188e-06
2.32616e-06
2.29827e-06
2.2588e-06
1.43227e-06
1.85275e-06
2.306e-06
2.55657e-06
2.66988e-06
2.71289e-06
2.69833e-06
2.64446e-06
2.57497e-06
2.50246e-06
2.43204e-06
2.36701e-06
2.30932e-06
2.2596e-06
2.21783e-06
2.1838e-06
2.15711e-06
2.13729e-06
2.1238e-06
2.11606e-06
2.11341e-06
2.11511e-06
2.12034e-06
2.12813e-06
2.13741e-06
2.14693e-06
2.15526e-06
2.16084e-06
2.16203e-06
2.15718e-06
2.14499e-06
2.12409e-06
2.09591e-06
1.16922e-06
1.56653e-06
2.00565e-06
2.27038e-06
2.4067e-06
2.47088e-06
2.47763e-06
2.44383e-06
2.3905e-06
2.33024e-06
2.26902e-06
2.21073e-06
2.15783e-06
2.11146e-06
2.07197e-06
2.03938e-06
2.01347e-06
1.99388e-06
1.98014e-06
1.97169e-06
1.96794e-06
1.96819e-06
1.97167e-06
1.97751e-06
1.98475e-06
1.99233e-06
1.99909e-06
2.0038e-06
2.00528e-06
2.00241e-06
1.99449e-06
1.98076e-06
1.96316e-06
9.44539e-07
1.33053e-06
1.76033e-06
2.03639e-06
2.19171e-06
2.27379e-06
2.29826e-06
2.28111e-06
2.24132e-06
2.19131e-06
2.1377e-06
2.08484e-06
2.03556e-06
1.99137e-06
1.95295e-06
1.92055e-06
1.89413e-06
1.87346e-06
1.85819e-06
1.84786e-06
1.84197e-06
1.83989e-06
1.84097e-06
1.84443e-06
1.84948e-06
1.85522e-06
1.86073e-06
1.8651e-06
1.86748e-06
1.86715e-06
1.86378e-06
1.85696e-06
1.84892e-06
7.50037e-07
1.13595e-06
1.56029e-06
1.84524e-06
2.016e-06
2.11309e-06
2.15237e-06
2.14915e-06
2.12071e-06
2.07915e-06
2.0315e-06
1.98245e-06
1.93522e-06
1.89168e-06
1.85284e-06
1.81921e-06
1.79096e-06
1.76802e-06
1.75019e-06
1.73713e-06
1.7284e-06
1.72352e-06
1.7219e-06
1.72292e-06
1.72589e-06
1.73009e-06
1.73481e-06
1.73933e-06
1.74308e-06
1.74557e-06
1.74672e-06
1.74625e-06
1.7465e-06
5.80701e-07
9.77392e-07
1.3989e-06
1.69046e-06
1.87344e-06
1.98287e-06
2.03425e-06
2.04229e-06
2.02296e-06
1.9879e-06
1.94447e-06
1.8977e-06
1.85112e-06
1.80692e-06
1.76643e-06
1.73039e-06
1.69919e-06
1.67295e-06
1.6516e-06
1.63495e-06
1.6227e-06
1.61447e-06
1.6098e-06
1.60819e-06
1.60907e-06
1.61186e-06
1.616e-06
1.62094e-06
1.62624e-06
1.6316e-06
1.63698e-06
1.64214e-06
1.64943e-06
4.35546e-07
8.52463e-07
1.27193e-06
1.56768e-06
1.75987e-06
1.87907e-06
1.94008e-06
1.95701e-06
1.9447e-06
1.91439e-06
1.8736e-06
1.82765e-06
1.78032e-06
1.73412e-06
1.69066e-06
1.65095e-06
1.6156e-06
1.58494e-06
1.55909e-06
1.53801e-06
1.52154e-06
1.50944e-06
1.50136e-06
1.49693e-06
1.49568e-06
1.49714e-06
1.50085e-06
1.50635e-06
1.5133e-06
1.52141e-06
1.5307e-06
1.54083e-06
1.55409e-06
3.21336e-07
7.61463e-07
1.177e-06
1.47418e-06
1.67263e-06
1.79911e-06
1.86741e-06
1.89093e-06
1.88355e-06
1.85612e-06
1.81625e-06
1.76947e-06
1.71982e-06
1.6701e-06
1.62221e-06
1.57744e-06
1.53665e-06
1.50037e-06
1.46894e-06
1.44248e-06
1.42103e-06
1.40446e-06
1.39257e-06
1.38508e-06
1.38163e-06
1.38182e-06
1.38522e-06
1.39143e-06
1.40009e-06
1.41092e-06
1.42385e-06
1.43842e-06
1.4568e-06
2.60521e-07
7.06557e-07
1.11307e-06
1.40844e-06
1.61023e-06
1.74159e-06
1.81497e-06
1.84298e-06
1.83868e-06
1.81252e-06
1.7721e-06
1.72315e-06
1.66991e-06
1.61545e-06
1.56191e-06
1.51086e-06
1.46338e-06
1.42026e-06
1.38204e-06
1.34908e-06
1.32158e-06
1.29963e-06
1.28316e-06
1.27201e-06
1.26591e-06
1.2645e-06
1.2674e-06
1.27417e-06
1.28442e-06
1.29778e-06
1.31407e-06
1.33268e-06
1.35566e-06
2.80395e-07
6.9014e-07
1.07997e-06
1.36985e-06
1.57207e-06
1.7059e-06
1.78214e-06
1.81247e-06
1.80916e-06
1.78225e-06
1.73935e-06
1.68631e-06
1.6276e-06
1.56653e-06
1.50553e-06
1.44642e-06
1.39057e-06
1.339e-06
1.29252e-06
1.25172e-06
1.21705e-06
1.18879e-06
1.16705e-06
1.1518e-06
1.14286e-06
1.1399e-06
1.1425e-06
1.15016e-06
1.16236e-06
1.17858e-06
1.19849e-06
1.22123e-06
1.24868e-06
3.67214e-07
7.12663e-07
1.07787e-06
1.35854e-06
1.55845e-06
1.69263e-06
1.76997e-06
1.80109e-06
1.79752e-06
1.7689e-06
1.72271e-06
1.66488e-06
1.59999e-06
1.53154e-06
1.46215e-06
1.39388e-06
1.3283e-06
1.26672e-06
1.2102e-06
1.15963e-06
1.11575e-06
1.07912e-06
1.05016e-06
1.02905e-06
1.01576e-06
1.01004e-06
1.01145e-06
1.01939e-06
1.03317e-06
1.05207e-06
1.07552e-06
1.1024e-06
1.13446e-06
4.89935e-07
7.7192e-07
1.10707e-06
1.37515e-06
1.57003e-06
1.70213e-06
1.77809e-06
1.80739e-06
1.80085e-06
1.76775e-06
1.71554e-06
1.65025e-06
1.57664e-06
1.49841e-06
1.41839e-06
1.33883e-06
1.26153e-06
1.18801e-06
1.11958e-06
1.05743e-06
1.00263e-06
9.56135e-07
9.18721e-07
8.90929e-07
8.7298e-07
8.64736e-07
8.65699e-07
8.75076e-07
8.91872e-07
9.14998e-07
9.43519e-07
9.75935e-07
1.01368e-06
6.34252e-07
8.64393e-07
1.16776e-06
1.42102e-06
1.6092e-06
1.73832e-06
1.81276e-06
1.84067e-06
1.83208e-06
1.79574e-06
1.73884e-06
1.66731e-06
1.58591e-06
1.49842e-06
1.40779e-06
1.31639e-06
1.22617e-06
1.13881e-06
1.05581e-06
9.78635e-07
9.08711e-07
8.47484e-07
7.96355e-07
7.5657e-07
7.29035e-07
7.14126e-07
7.11552e-07
7.20379e-07
7.39182e-07
7.66277e-07
8.00143e-07
8.38655e-07
8.83009e-07
7.97436e-07
9.88121e-07
1.26135e-06
1.49817e-06
1.67688e-06
1.79934e-06
1.86763e-06
1.88885e-06
1.87266e-06
1.82773e-06
1.7613e-06
1.6794e-06
1.58692e-06
1.48767e-06
1.38463e-06
1.28016e-06
1.17618e-06
1.07431e-06
9.76043e-07
8.82861e-07
7.96368e-07
7.18396e-07
6.51074e-07
5.96773e-07
5.57829e-07
5.35975e-07
5.31643e-07
5.43632e-07
5.69405e-07
6.05832e-07
6.50117e-07
6.99149e-07
7.53488e-07
9.81236e-07
1.14177e-06
1.38828e-06
1.60978e-06
1.78133e-06
1.90161e-06
1.96998e-06
1.99171e-06
1.97522e-06
1.92842e-06
1.85814e-06
1.77034e-06
1.66997e-06
1.56105e-06
1.44673e-06
1.32952e-06
1.21141e-06
1.09399e-06
9.78638e-07
8.66577e-07
7.59083e-07
6.57643e-07
5.64227e-07
4.81673e-07
4.14129e-07
3.67125e-07
3.46052e-07
3.52642e-07
3.8288e-07
4.29577e-07
4.86418e-07
5.47983e-07
6.14308e-07
1.19198e-06
1.33187e-06
1.5566e-06
1.76056e-06
1.91689e-06
2.02256e-06
2.0762e-06
2.08347e-06
2.05349e-06
1.99446e-06
1.91318e-06
1.8154e-06
1.7058e-06
1.58807e-06
1.46508e-06
1.33906e-06
1.21174e-06
1.08446e-06
9.58287e-07
8.34043e-07
7.12421e-07
5.94042e-07
4.79571e-07
3.6995e-07
2.67072e-07
1.76363e-07
1.17834e-07
1.31911e-07
1.98648e-07
2.79196e-07
3.62095e-07
4.43294e-07
5.24253e-07
1.43448e-06
1.55502e-06
1.76248e-06
1.96005e-06
2.12143e-06
2.23903e-06
2.30542e-06
2.32244e-06
2.29765e-06
2.239e-06
2.15382e-06
2.0488e-06
1.92965e-06
1.80094e-06
1.66626e-06
1.52839e-06
1.38943e-06
1.25096e-06
1.11414e-06
9.79873e-07
8.4882e-07
7.21534e-07
5.98518e-07
4.80365e-07
3.68031e-07
2.63663e-07
1.73744e-07
1.21466e-07
1.43629e-07
2.1287e-07
2.94364e-07
3.76589e-07
4.59292e-07
1.72925e-06
1.84686e-06
2.04008e-06
2.20807e-06
2.33114e-06
2.41038e-06
2.44433e-06
2.43799e-06
2.39921e-06
2.33421e-06
2.248e-06
2.14519e-06
2.02995e-06
1.90584e-06
1.77592e-06
1.64277e-06
1.50859e-06
1.3752e-06
1.24418e-06
1.1169e-06
9.94643e-07
8.78748e-07
7.70721e-07
6.72467e-07
5.86518e-07
5.16223e-07
4.65566e-07
4.38143e-07
4.35237e-07
4.54494e-07
4.91056e-07
5.39166e-07
5.94947e-07
2.06893e-06
2.16048e-06
2.35814e-06
2.56877e-06
2.75398e-06
2.89002e-06
2.96056e-06
2.96891e-06
2.92771e-06
2.84901e-06
2.74289e-06
2.61793e-06
2.48093e-06
2.33692e-06
2.18965e-06
2.04188e-06
1.89573e-06
1.7528e-06
1.6144e-06
1.48164e-06
1.35557e-06
1.23721e-06
1.12761e-06
1.02798e-06
9.39614e-07
8.63956e-07
8.0244e-07
7.56297e-07
7.26227e-07
7.12078e-07
7.12783e-07
7.26197e-07
7.50221e-07
2.54664e-06
2.67065e-06
2.81742e-06
2.9043e-06
2.96349e-06
3.01636e-06
3.05358e-06
3.0671e-06
3.05424e-06
3.01356e-06
2.94599e-06
2.85516e-06
2.74582e-06
2.62278e-06
2.49051e-06
2.35298e-06
2.21355e-06
2.07501e-06
1.93963e-06
1.80929e-06
1.68556e-06
1.56976e-06
1.46306e-06
1.36647e-06
1.28091e-06
1.20714e-06
1.14574e-06
1.09706e-06
1.06111e-06
1.03753e-06
1.02563e-06
1.0245e-06
1.03225e-06
3.01902e-06
3.08474e-06
3.40357e-06
3.75399e-06
4.01452e-06
4.1577e-06
4.19045e-06
4.14282e-06
4.04403e-06
3.912e-06
3.75784e-06
3.58959e-06
3.41291e-06
3.23188e-06
3.04982e-06
2.86962e-06
2.69383e-06
2.52467e-06
2.36406e-06
2.21361e-06
2.07465e-06
1.94822e-06
1.83507e-06
1.73571e-06
1.65035e-06
1.57891e-06
1.52103e-06
1.47603e-06
1.44297e-06
1.42071e-06
1.4079e-06
1.40357e-06
1.40567e-06
4.05013e-06
4.12022e-06
3.97562e-06
3.83258e-06
3.86876e-06
4.02245e-06
4.17073e-06
4.26043e-06
4.28595e-06
4.25666e-06
4.18965e-06
4.10397e-06
4.01518e-06
3.93386e-06
3.86628e-06
3.81512e-06
3.78049e-06
3.76093e-06
3.75422e-06
3.75792e-06
3.76967e-06
3.78742e-06
3.80942e-06
3.83422e-06
3.86065e-06
3.88769e-06
3.91451e-06
3.94035e-06
3.96458e-06
3.98677e-06
4.00653e-06
4.02514e-06
4.04046e-06
4.4969e-06
4.98682e-06
5.88523e-06
6.30997e-06
6.36971e-06
6.29243e-06
6.24125e-06
6.32901e-06
6.58828e-06
6.98425e-06
7.46133e-06
7.96933e-06
8.46992e-06
8.93735e-06
9.35654e-06
9.72017e-06
1.0026e-05
1.02751e-05
1.04707e-05
1.06168e-05
1.07182e-05
1.07797e-05
1.08059e-05
1.0801e-05
1.07689e-05
1.07131e-05
1.06365e-05
1.05412e-05
1.04294e-05
1.03022e-05
1.01614e-05
1.00089e-05
9.8461e-06
7.67993e-06
5.8909e-06
4.5469e-06
6.05596e-06
8.78655e-06
1.15163e-05
1.38721e-05
1.57869e-05
1.72547e-05
1.82863e-05
1.89158e-05
1.91895e-05
1.91566e-05
1.88668e-05
1.83679e-05
1.77041e-05
1.69146e-05
1.60337e-05
1.50902e-05
1.4108e-05
1.31067e-05
1.2102e-05
1.11062e-05
1.01288e-05
9.17687e-06
8.25541e-06
7.36779e-06
6.51554e-06
5.69952e-06
4.91701e-06
4.1698e-06
3.44578e-06
2.75647e-06
8.60581e-06
1.46579e-05
1.87184e-05
2.10861e-05
2.21266e-05
2.1584e-05
1.96344e-05
1.67412e-05
1.34074e-05
1.03574e-05
8.8148e-06
9.84549e-06
1.27961e-05
1.64975e-05
2.03398e-05
2.4063e-05
2.75519e-05
3.07564e-05
3.36583e-05
3.62575e-05
3.85637e-05
4.05918e-05
4.236e-05
4.38872e-05
4.51924e-05
4.62944e-05
4.72109e-05
4.79595e-05
4.85573e-05
4.90258e-05
4.93812e-05
4.96839e-05
4.99239e-05
3.4751e-05
3.73121e-05
4.68177e-05
6.20725e-05
7.79403e-05
9.35227e-05
0.000108106
0.000120973
0.000131931
0.000141016
0.000148339
0.000154058
0.000158362
0.000161437
0.000163456
0.000164581
0.000164955
0.000164701
0.000163929
0.00016273
0.000161183
0.000159354
0.000157299
0.000155064
0.000152688
0.000150201
0.00014763
0.000144992
0.000142306
0.000139576
0.000136806
0.000134084
0.000131435
0.000608521
0.000582532
0.000556804
0.000530168
0.000503931
0.000478416
0.000453666
0.000429959
0.000407484
0.000386304
0.000366441
0.000347885
0.000330595
0.000314505
0.000299542
0.000285626
0.000272673
0.000260605
0.000249345
0.00023882
0.000228965
0.000219718
0.000211025
0.000202836
0.000195107
0.000187797
0.000180869
0.00017429
0.00016802
0.000162037
0.00015621
0.000151067
0.000146368
0.000107567
0.000106124
0.000105601
0.000107942
0.000110722
0.000110126
0.000101887
8.68624e-05
7.13371e-05
5.97829e-05
5.09789e-05
4.22769e-05
3.28133e-05
2.48726e-05
2.29262e-05
2.49629e-05
1.37404e-05
1.46146e-05
3.68766e-05
4.43167e-05
4.06522e-05
3.43628e-05
2.92522e-05
2.54612e-05
2.25361e-05
2.02314e-05
1.83588e-05
1.67672e-05
1.57404e-05
1.55306e-05
1.63245e-05
2.47627e-05
3.86077e-05
4.63691e-05
4.87415e-05
5.56451e-05
5.91922e-05
3.9082e-05
7.30593e-06
1.80037e-05
1.24466e-05
8.79459e-06
1.3735e-05
1.28787e-05
1.10698e-05
1.36773e-05
1.67976e-05
2.02767e-05
3.04048e-05
4.21155e-05
4.70899e-05
4.41844e-05
3.72877e-05
3.03471e-05
2.50547e-05
2.13438e-05
1.86155e-05
1.64189e-05
1.45461e-05
1.29179e-05
1.14921e-05
1.02323e-05
9.10536e-06
8.08473e-06
7.15153e-06
6.29421e-06
5.508e-06
4.79419e-06
4.15989e-06
3.61898e-06
3.19043e-06
2.89252e-06
2.74353e-06
2.76582e-06
2.9867e-06
3.42594e-06
4.0645e-06
4.85544e-06
5.88945e-06
7.66893e-06
1.14085e-05
1.86093e-05
2.91868e-05
4.01145e-05
4.68112e-05
4.66486e-05
4.0083e-05
2.90024e-05
1.52229e-05
1.58908e-06
1.74254e-05
3.29934e-05
4.49073e-05
5.09759e-05
4.99876e-05
4.31458e-05
3.33881e-05
2.35124e-05
1.61793e-05
7.23978e-06
0.00011766
0.000111743
0.000107778
0.000107068
0.000108777
0.000111609
0.000113712
0.000110786
9.88262e-05
8.17226e-05
6.5127e-05
5.2119e-05
4.43316e-05
4.22748e-05
3.98117e-05
2.49957e-05
4.7991e-06
3.11994e-05
4.38969e-05
4.32792e-05
3.7663e-05
3.23476e-05
2.82588e-05
2.50465e-05
2.24561e-05
2.03782e-05
1.86925e-05
1.72476e-05
1.62745e-05
1.61959e-05
1.662e-05
2.3273e-05
3.76411e-05
4.7368e-05
5.06818e-05
5.70161e-05
6.03687e-05
4.12478e-05
6.89254e-06
1.59157e-05
1.35306e-05
1.04925e-05
1.57855e-05
1.57512e-05
1.29441e-05
1.35188e-05
1.64763e-05
2.02657e-05
3.04554e-05
4.25424e-05
4.79572e-05
4.52178e-05
3.82315e-05
3.11266e-05
2.57071e-05
2.19186e-05
1.91397e-05
1.69034e-05
1.49957e-05
1.33354e-05
1.18793e-05
1.05896e-05
9.43291e-06
8.3825e-06
7.41991e-06
6.53427e-06
5.72171e-06
4.98441e-06
4.33021e-06
3.77349e-06
3.33388e-06
3.0306e-06
2.88064e-06
2.90198e-06
3.11558e-06
3.53878e-06
4.1591e-06
4.93461e-06
5.94908e-06
7.68632e-06
1.1322e-05
1.84319e-05
2.9122e-05
4.04747e-05
4.784e-05
4.82992e-05
4.20167e-05
3.08139e-05
1.66598e-05
3.78259e-06
1.80182e-05
3.38815e-05
4.60514e-05
5.21586e-05
5.09676e-05
4.38371e-05
3.39542e-05
2.41529e-05
1.70312e-05
8.0185e-06
9.27378e-05
8.99951e-05
8.75578e-05
8.66213e-05
8.72117e-05
8.87534e-05
9.06578e-05
9.26648e-05
9.29383e-05
8.85285e-05
7.981e-05
6.97236e-05
5.96377e-05
4.72403e-05
2.71425e-05
1.18323e-06
2.79409e-05
4.25427e-05
4.42904e-05
3.98019e-05
3.4721e-05
3.06446e-05
2.73563e-05
2.46106e-05
2.23255e-05
2.04679e-05
1.89692e-05
1.76861e-05
1.67814e-05
1.68164e-05
1.71841e-05
2.18609e-05
3.61154e-05
4.78627e-05
5.24578e-05
5.84243e-05
6.16312e-05
4.38071e-05
9.56474e-06
1.34491e-05
1.43163e-05
1.17112e-05
1.67018e-05
1.74032e-05
1.42234e-05
1.31896e-05
1.58985e-05
2.0141e-05
3.06253e-05
4.31191e-05
4.89046e-05
4.62696e-05
3.91737e-05
3.19118e-05
2.63773e-05
2.25177e-05
1.96896e-05
1.74129e-05
1.54694e-05
1.37764e-05
1.2289e-05
1.09684e-05
9.78062e-06
8.69893e-06
7.7053e-06
6.78961e-06
5.94879e-06
5.18585e-06
4.50924e-06
3.93372e-06
3.47866e-06
3.16249e-06
3.00226e-06
3.0165e-06
3.22515e-06
3.64326e-06
4.25757e-06
5.02158e-06
6.00296e-06
7.66961e-06
1.11666e-05
1.81298e-05
2.88857e-05
4.06848e-05
4.88287e-05
5.01077e-05
4.43841e-05
3.34346e-05
1.96376e-05
9.10497e-06
1.97678e-05
3.52235e-05
4.74066e-05
5.34064e-05
5.1896e-05
4.44023e-05
3.43742e-05
2.46815e-05
1.78461e-05
8.7897e-06
5.40508e-05
5.13441e-05
4.90817e-05
4.81926e-05
4.86907e-05
5.00921e-05
5.18236e-05
5.32947e-05
5.42098e-05
5.36686e-05
5.02596e-05
4.27167e-05
3.05001e-05
1.33562e-05
1.14014e-05
3.06433e-05
4.20654e-05
4.38511e-05
4.02678e-05
3.58624e-05
3.22322e-05
2.91906e-05
2.64947e-05
2.41386e-05
2.21469e-05
2.05174e-05
1.92168e-05
1.8119e-05
1.73128e-05
1.74475e-05
1.80466e-05
2.09063e-05
3.41346e-05
4.78254e-05
5.40654e-05
5.98986e-05
6.301e-05
4.67628e-05
1.43656e-05
1.11042e-05
1.47818e-05
1.26451e-05
1.67086e-05
1.79076e-05
1.48251e-05
1.28611e-05
1.53521e-05
2.00324e-05
3.08755e-05
4.37549e-05
4.98339e-05
4.72498e-05
4.00411e-05
3.26478e-05
2.70249e-05
2.31105e-05
2.02418e-05
1.79299e-05
1.59544e-05
1.42316e-05
1.2715e-05
1.13648e-05
1.01463e-05
9.03312e-06
8.00779e-06
7.06098e-06
6.19055e-06
5.40036e-06
4.69953e-06
4.10321e-06
3.63049e-06
3.29842e-06
3.12304e-06
3.1233e-06
3.3214e-06
3.73547e-06
4.35359e-06
5.12005e-06
6.07264e-06
7.65077e-06
1.09726e-05
1.77282e-05
2.84974e-05
4.07614e-05
4.97959e-05
5.20859e-05
4.71715e-05
3.67789e-05
2.37544e-05
1.48138e-05
2.27185e-05
3.7089e-05
4.89575e-05
5.46481e-05
5.26865e-05
4.47874e-05
3.46502e-05
2.51345e-05
1.87058e-05
9.63523e-06
8.67056e-06
7.47106e-06
7.34393e-06
8.22961e-06
9.27696e-06
1.02472e-05
1.15747e-05
1.35031e-05
1.54545e-05
1.65245e-05
1.63203e-05
1.61311e-05
1.94547e-05
2.74359e-05
3.62157e-05
4.1339e-05
4.15095e-05
3.86982e-05
3.54619e-05
3.27336e-05
3.02723e-05
2.78743e-05
2.56161e-05
2.36167e-05
2.1917e-05
2.05189e-05
1.94196e-05
1.85227e-05
1.78455e-05
1.8053e-05
1.90481e-05
2.06414e-05
3.17835e-05
4.70775e-05
5.53645e-05
6.14074e-05
6.45371e-05
5.01397e-05
2.04311e-05
1.04117e-05
1.50914e-05
1.35002e-05
1.61649e-05
1.7484e-05
1.47332e-05
1.242e-05
1.48464e-05
1.99565e-05
3.1241e-05
4.44888e-05
5.07572e-05
4.81428e-05
4.08089e-05
3.33141e-05
2.76358e-05
2.36874e-05
2.07886e-05
1.84476e-05
1.64448e-05
1.46958e-05
1.31527e-05
1.17743e-05
1.05257e-05
9.3809e-06
8.32309e-06
7.34386e-06
6.44203e-06
5.62238e-06
4.89471e-06
4.27458e-06
3.78121e-06
3.4313e-06
3.23993e-06
3.2252e-06
3.41013e-06
3.8174e-06
4.44185e-06
5.22289e-06
6.1612e-06
7.64664e-06
1.07592e-05
1.72294e-05
2.7917e-05
4.06149e-05
5.0619e-05
5.40983e-05
5.02409e-05
4.07002e-05
2.87087e-05
2.08918e-05
2.65628e-05
3.93934e-05
5.06492e-05
5.58241e-05
5.32775e-05
4.49439e-05
3.47489e-05
2.54699e-05
1.95351e-05
1.05203e-05
1.24765e-05
1.25687e-05
1.20594e-05
1.06681e-05
8.44091e-06
6.14399e-06
6.10615e-06
9.41258e-06
1.41326e-05
1.90667e-05
2.37416e-05
2.80858e-05
3.20672e-05
3.52425e-05
3.68213e-05
3.65529e-05
3.51569e-05
3.35672e-05
3.20487e-05
3.03928e-05
2.85162e-05
2.65636e-05
2.47108e-05
2.30593e-05
2.16436e-05
2.04746e-05
1.95765e-05
1.88924e-05
1.83799e-05
1.86449e-05
2.00691e-05
2.12065e-05
2.94063e-05
4.55299e-05
5.62065e-05
6.29151e-05
6.62472e-05
5.39443e-05
2.73789e-05
1.31693e-05
1.57581e-05
1.45075e-05
1.55593e-05
1.64891e-05
1.40619e-05
1.1939e-05
1.45523e-05
2.00333e-05
3.17755e-05
4.53432e-05
5.16735e-05
4.89328e-05
4.14597e-05
3.38987e-05
2.82033e-05
2.42445e-05
2.13278e-05
1.8965e-05
1.69406e-05
1.517e-05
1.36034e-05
1.21988e-05
1.0921e-05
9.74448e-06
8.65338e-06
7.64032e-06
6.70516e-06
5.85359e-06
5.09614e-06
4.44877e-06
3.9307e-06
3.55863e-06
3.34822e-06
3.31789e-06
3.49044e-06
3.89075e-06
4.5217e-06
5.3249e-06
6.26591e-06
7.66705e-06
1.05478e-05
1.66535e-05
2.71345e-05
4.01831e-05
5.11937e-05
5.60281e-05
5.34831e-05
4.50779e-05
3.42625e-05
2.72428e-05
3.108e-05
4.21259e-05
5.24707e-05
5.68849e-05
5.36069e-05
4.48346e-05
3.46684e-05
2.56932e-05
2.03118e-05
1.14126e-05
1.01829e-05
9.89988e-06
9.10084e-06
7.66515e-06
5.73514e-06
4.10769e-06
4.82007e-06
7.92163e-06
1.19158e-05
1.61366e-05
2.02148e-05
2.38554e-05
2.68142e-05
2.88953e-05
3.00767e-05
3.0582e-05
3.06458e-05
3.03e-05
2.94892e-05
2.82682e-05
2.68052e-05
2.52762e-05
2.38065e-05
2.24752e-05
2.13265e-05
2.03824e-05
1.96831e-05
1.92164e-05
1.89031e-05
1.92277e-05
2.10099e-05
2.24865e-05
2.7547e-05
4.32056e-05
5.64423e-05
6.43923e-05
6.82012e-05
5.81909e-05
3.50277e-05
1.90552e-05
1.7642e-05
1.60033e-05
1.54083e-05
1.53957e-05
1.31157e-05
1.15973e-05
1.45807e-05
2.03348e-05
3.25319e-05
4.6347e-05
5.25812e-05
4.96003e-05
4.19733e-05
3.4388e-05
2.87192e-05
2.47762e-05
2.18556e-05
1.94799e-05
1.74407e-05
1.56536e-05
1.40675e-05
1.26389e-05
1.1333e-05
1.01248e-05
8.99959e-06
7.95112e-06
6.9804e-06
6.09408e-06
5.30347e-06
4.62508e-06
4.07824e-06
3.6798e-06
3.44641e-06
3.39818e-06
3.55869e-06
3.95352e-06
4.59174e-06
5.42171e-06
6.3808e-06
7.71349e-06
1.03543e-05
1.60253e-05
2.61573e-05
3.94284e-05
5.14336e-05
5.77583e-05
5.67618e-05
4.97341e-05
4.01672e-05
3.3736e-05
3.60004e-05
4.51703e-05
5.43362e-05
5.77313e-05
5.35946e-05
4.44335e-05
3.44276e-05
2.58246e-05
2.10091e-05
1.22616e-05
6.7374e-06
6.49431e-06
5.87849e-06
4.82144e-06
3.45201e-06
2.58948e-06
3.83555e-06
6.51254e-06
9.71812e-06
1.3118e-05
1.64803e-05
1.95889e-05
2.22711e-05
2.44361e-05
2.60637e-05
2.7143e-05
2.76521e-05
2.76064e-05
2.70927e-05
2.62412e-05
2.51842e-05
2.40395e-05
2.29065e-05
2.18637e-05
2.09655e-05
2.02408e-05
1.97358e-05
1.94836e-05
1.93999e-05
1.98086e-05
2.18132e-05
2.41564e-05
2.68614e-05
4.03313e-05
5.59046e-05
6.5756e-05
7.04448e-05
6.28784e-05
4.32239e-05
2.68898e-05
2.14875e-05
1.8456e-05
1.61841e-05
1.47492e-05
1.23412e-05
1.16985e-05
1.50482e-05
2.09347e-05
3.35692e-05
4.75229e-05
5.34665e-05
5.01178e-05
4.2328e-05
3.47697e-05
2.9176e-05
2.52774e-05
2.23682e-05
1.99898e-05
1.79438e-05
1.61466e-05
1.45453e-05
1.30956e-05
1.17629e-05
1.05232e-05
9.36311e-06
8.27756e-06
7.26882e-06
6.34464e-06
5.51717e-06
4.80351e-06
4.22322e-06
3.79369e-06
3.53317e-06
3.46421e-06
3.61213e-06
4.00286e-06
4.64969e-06
5.50972e-06
6.50034e-06
7.78424e-06
1.01894e-05
1.53708e-05
2.49987e-05
3.83136e-05
5.12367e-05
5.91338e-05
5.98835e-05
5.44373e-05
4.61723e-05
4.01924e-05
4.1082e-05
4.83946e-05
5.61282e-05
5.82299e-05
5.31493e-05
4.37269e-05
3.40612e-05
2.58918e-05
2.16033e-05
1.30107e-05
5.38562e-06
5.18343e-06
4.70431e-06
3.92421e-06
3.01743e-06
2.70656e-06
3.86113e-06
6.0359e-06
8.67338e-06
1.15039e-05
1.43456e-05
1.70466e-05
1.9482e-05
2.15491e-05
2.31669e-05
2.42913e-05
2.49232e-05
2.51026e-05
2.48965e-05
2.43888e-05
2.36734e-05
2.28495e-05
2.20086e-05
2.12265e-05
2.05617e-05
2.00483e-05
1.97314e-05
1.96827e-05
1.98486e-05
2.03872e-05
2.24717e-05
2.58265e-05
2.77245e-05
3.74837e-05
5.44734e-05
6.68325e-05
7.29502e-05
6.79505e-05
5.1781e-05
3.59164e-05
2.74152e-05
2.22885e-05
1.82281e-05
1.50896e-05
1.23213e-05
1.25693e-05
1.60121e-05
2.18789e-05
3.49443e-05
4.88859e-05
5.43027e-05
5.04506e-05
4.25021e-05
3.5033e-05
2.9567e-05
2.57426e-05
2.28616e-05
2.04923e-05
1.84489e-05
1.66488e-05
1.50374e-05
1.35699e-05
1.22121e-05
1.09414e-05
9.74549e-06
8.62102e-06
7.57156e-06
6.60601e-06
5.73751e-06
4.98387e-06
4.36505e-06
3.89935e-06
3.60729e-06
3.51458e-06
3.64898e-06
4.03654e-06
4.69299e-06
5.58518e-06
6.61926e-06
7.87709e-06
1.00618e-05
1.47194e-05
2.36869e-05
3.68163e-05
5.05016e-05
5.99805e-05
6.26214e-05
5.89245e-05
5.20078e-05
4.63931e-05
4.60833e-05
5.16077e-05
5.76487e-05
5.81934e-05
5.21798e-05
4.27353e-05
3.36319e-05
2.59349e-05
2.20793e-05
1.36023e-05
4.58809e-06
4.41293e-06
4.03791e-06
3.47914e-06
2.92943e-06
2.91914e-06
3.91132e-06
5.67389e-06
7.85569e-06
1.02433e-05
1.26841e-05
1.50457e-05
1.72126e-05
1.90937e-05
2.06269e-05
2.17765e-05
2.25301e-05
2.29019e-05
2.29341e-05
2.26907e-05
2.22504e-05
2.16979e-05
2.11135e-05
2.05664e-05
2.01159e-05
1.98027e-05
1.96669e-05
1.98044e-05
2.02243e-05
2.09511e-05
2.30164e-05
2.71729e-05
2.98448e-05
3.56296e-05
5.22105e-05
6.73587e-05
7.55642e-05
7.32644e-05
6.04607e-05
4.56061e-05
3.50123e-05
2.76375e-05
2.16865e-05
1.68137e-05
1.35988e-05
1.43887e-05
1.74598e-05
2.32024e-05
3.67146e-05
5.04342e-05
5.5043e-05
5.05553e-05
4.24744e-05
3.51696e-05
2.98866e-05
2.61664e-05
2.33316e-05
2.0985e-05
1.89551e-05
1.71604e-05
1.55448e-05
1.40632e-05
1.26823e-05
1.13809e-05
1.01484e-05
8.98308e-06
7.88995e-06
6.87921e-06
5.96513e-06
5.16636e-06
4.50333e-06
3.99572e-06
3.66715e-06
3.54754e-06
3.66777e-06
4.05331e-06
4.72011e-06
5.64485e-06
6.73208e-06
7.98954e-06
9.97947e-06
1.41036e-05
2.22691e-05
3.49404e-05
4.91446e-05
6.01233e-05
6.47288e-05
6.29057e-05
5.73763e-05
5.20846e-05
5.07594e-05
5.45542e-05
5.86053e-05
5.73892e-05
5.06228e-05
4.15288e-05
3.32211e-05
2.59903e-05
2.24273e-05
1.39908e-05
3.97578e-06
3.84021e-06
3.56998e-06
3.20535e-06
2.92421e-06
3.08402e-06
3.94118e-06
5.3845e-06
7.19625e-06
9.21077e-06
1.13003e-05
1.33559e-05
1.52845e-05
1.7009e-05
1.84676e-05
1.96177e-05
2.04406e-05
2.09426e-05
2.11531e-05
2.11205e-05
2.09079e-05
2.05858e-05
2.02242e-05
1.98857e-05
1.9629e-05
1.95018e-05
1.95396e-05
1.98428e-05
2.05002e-05
2.14727e-05
2.34955e-05
2.8025e-05
3.23805e-05
3.573e-05
4.95516e-05
6.70303e-05
7.79637e-05
7.85528e-05
6.89574e-05
5.5472e-05
4.36633e-05
3.42983e-05
2.64872e-05
2.00244e-05
1.63603e-05
1.70915e-05
1.93037e-05
2.49419e-05
3.89351e-05
5.21387e-05
5.56149e-05
5.03818e-05
4.2228e-05
3.51751e-05
3.01303e-05
2.65437e-05
2.37743e-05
2.14659e-05
1.94619e-05
1.76821e-05
1.60688e-05
1.45773e-05
1.31755e-05
1.1844e-05
1.0574e-05
9.36559e-06
8.22553e-06
7.16542e-06
6.20076e-06
5.35118e-06
4.63774e-06
4.08187e-06
3.71118e-06
3.56112e-06
3.66671e-06
4.05216e-06
4.73049e-06
5.68668e-06
6.83322e-06
8.11777e-06
9.94975e-06
1.35574e-05
2.08128e-05
3.27253e-05
4.71106e-05
5.93957e-05
6.59479e-05
6.60711e-05
6.19542e-05
5.69894e-05
5.48348e-05
5.68591e-05
5.85813e-05
5.55681e-05
4.84916e-05
4.02441e-05
3.29183e-05
2.60864e-05
2.26498e-05
1.41555e-05
3.52447e-06
3.43358e-06
3.25987e-06
3.05328e-06
2.95841e-06
3.20579e-06
3.94813e-06
5.14002e-06
6.65001e-06
8.35603e-06
1.01553e-05
1.19564e-05
1.36778e-05
1.52496e-05
1.66164e-05
1.774e-05
1.85991e-05
1.91917e-05
1.9536e-05
1.9669e-05
1.96415e-05
1.95121e-05
1.93414e-05
1.91863e-05
1.91027e-05
1.91439e-05
1.93458e-05
1.97954e-05
2.06536e-05