/*--------------------------------*- C++ -*----------------------------------*\
| =========                 |                                                 |
| \\      /  F ield         | OpenFOAM: The Open Source CFD Toolbox           |
|  \\    /   O peration     | Version:  2.1.1                                 |
|   \\  /    A nd           | Web:      www.OpenFOAM.org                      |
|    \\/     M anipulation  |                                                 |
\*---------------------------------------------------------------------------*/
FoamFile
{
    version     2.0;
    format      ascii;
    class       volScalarField;
    location    "0.175";
    object      p;
}
// * * * * * * * * * * * * * * * * * * * * * * * * * * * * * * * * * * * * * //

dimensions      [0 2 -2 0 0 0 0];

internalField   nonuniform List<scalar> 
6820
(
9.57168
-8.26804
-11.2877
-11.488
-11.6765
-11.6219
-11.5869
-11.6245
-11.7004
-11.7994
-11.913
-12.0363
-12.167
-12.3043
-12.4478
-12.5977
-12.7539
-12.9176
-13.0881
-13.2668
-13.4539
-13.6504
-13.857
-14.0751
-14.3061
-14.5516
-14.814
-15.0954
-15.4003
-15.7287
-16.0996
-16.4785
-17.0013
2.89247
-8.08478
-10.9742
-11.2879
-11.5567
-11.5985
-11.6005
-11.6495
-11.7273
-11.8233
-11.933
-12.0526
-12.1802
-12.3149
-12.4566
-12.605
-12.7604
-12.9222
-13.0921
-13.2702
-13.4569
-13.6528
-13.8586
-14.0759
-14.3059
-14.5503
-14.8113
-15.0909
-15.3929
-15.7185
-16.0808
-16.4619
-16.9463
0.180962
-6.65079
-9.94943
-10.7213
-11.206
-11.423
-11.5039
-11.5857
-11.6827
-11.791
-11.9091
-12.0351
-12.1674
-12.3056
-12.4494
-12.5992
-12.755
-12.9173
-13.087
-13.2639
-13.4492
-13.6438
-13.8477
-14.0628
-14.2898
-14.5303
-14.7861
-15.0588
-15.3511
-15.6627
-15.9985
-16.3369
-16.678
-1.80135
-6.42008
-9.52311
-10.3955
-10.8834
-11.1791
-11.33
-11.4556
-11.5835
-11.7119
-11.8425
-11.9767
-12.1146
-12.2568
-12.4037
-12.5556
-12.7127
-12.8756
-13.0449
-13.2209
-13.4042
-13.5959
-13.795
-14.0049
-14.2255
-14.4577
-14.7026
-14.9607
-15.2327
-15.5164
-15.8092
-16.0918
-16.3432
-3.43327
-6.51667
-9.12686
-10.0429
-10.5661
-10.9404
-11.1607
-11.3252
-11.4766
-11.6206
-11.7617
-11.9034
-12.0468
-12.1927
-12.3417
-12.4946
-12.6519
-12.8139
-12.9814
-13.1546
-13.3338
-13.5191
-13.7132
-13.9144
-14.124
-14.3425
-14.5701
-14.8061
-15.0494
-15.296
-15.5394
-15.7634
-15.9442
-4.65175
-6.69333
-8.8713
-9.82771
-10.3696
-10.7705
-11.0252
-11.2118
-11.3785
-11.5343
-11.6839
-11.8314
-11.979
-12.1276
-12.2782
-12.4315
-12.588
-12.7484
-12.9131
-13.0825
-13.2573
-13.4381
-13.6252
-13.8177
-14.0163
-14.2211
-14.4316
-14.6464
-14.863
-15.0768
-15.2802
-15.4603
-15.5976
-5.59767
-6.97487
-8.74863
-9.66725
-10.1963
-10.6048
-10.889
-11.1004
-11.2843
-11.4526
-11.6109
-11.7643
-11.9158
-12.0669
-12.2188
-12.3723
-12.5283
-12.6872
-12.8495
-13.0157
-13.1862
-13.3609
-13.5402
-13.7235
-13.9111
-14.1026
-14.2968
-14.4919
-14.685
-14.8712
-15.0432
-15.1909
-15.2993
-6.3382
-7.27548
-8.6915
-9.54508
-10.0621
-10.4716
-10.7739
-11.0018
-11.1968
-11.3735
-11.5381
-11.696
-11.8506
-12.0037
-12.1565
-12.3101
-12.4652
-12.6222
-12.7817
-12.944
-13.1092
-13.2777
-13.4494
-13.6239
-13.8008
-13.9795
-14.1585
-14.3357
-14.508
-14.671
-14.818
-14.9416
-15.0308
-6.92426
-7.57286
-8.69508
-9.46793
-9.96193
-10.3591
-10.6671
-10.9056
-11.1096
-11.294
-11.4647
-11.6272
-11.7848
-11.9398
-12.0935
-12.247
-12.401
-12.5561
-12.7126
-12.871
-13.0314
-13.1938
-13.358
-13.5236
-13.6899
-13.8561
-14.0207
-14.1815
-14.3356
-14.4789
-14.6062
-14.7118
-14.7882
-7.39366
-7.85132
-8.73577
-9.41948
-9.88391
-10.2646
-10.5726
-10.8181
-11.0286
-11.2183
-11.3935
-11.5591
-11.7189
-11.875
-12.029
-12.1818
-12.3343
-12.4871
-12.6404
-12.7946
-12.9497
-13.1056
-13.2622
-13.4189
-13.5749
-13.7293
-13.8806
-14.0267
-14.1648
-14.2918
-14.4034
-14.4956
-14.5635
-7.77328
-8.10314
-8.79976
-9.39587
-9.82728
-10.1879
-10.4897
-10.737
-10.9507
-11.1437
-11.322
-11.4902
-11.6517
-11.8087
-11.9628
-12.1149
-12.2659
-12.4162
-12.5662
-12.7161
-12.8659
-13.0156
-13.1647
-13.3128
-13.459
-13.6024
-13.7414
-13.8743
-13.9986
-14.1118
-14.2108
-14.2929
-14.3548
-8.08272
-8.32592
-8.8761
-9.39016
-9.78604
-10.1244
-10.4161
-10.6621
-10.8769
-11.0719
-11.2522
-11.4221
-11.5846
-11.742
-11.8956
-12.0466
-12.1956
-12.3431
-12.4896
-12.635
-12.7794
-12.9227
-13.0644
-13.204
-13.3408
-13.4737
-13.6015
-13.7225
-13.8348
-13.9364
-14.0252
-14.0993
-14.1568
-8.33628
-8.5197
-8.95664
-9.39701
-9.75706
-10.0726
-10.3518
-10.5934
-10.8072
-11.0022
-11.1833
-11.3539
-11.5168
-11.674
-11.8269
-11.9765
-12.1234
-12.2681
-12.4108
-12.5518
-12.6908
-12.8278
-12.9624
-13.0939
-13.2218
-13.3451
-13.4625
-13.5729
-13.6748
-13.7665
-13.8467
-13.9142
-13.9682
-8.5445
-8.6859
-9.03571
-9.41177
-9.73696
-10.0296
-10.2947
-10.5298
-10.7408
-10.9347
-11.1156
-11.2861
-11.4489
-11.6055
-11.7574
-11.9052
-12.0498
-12.1914
-12.3303
-12.4666
-12.6003
-12.731
-12.8586
-12.9824
-13.1018
-13.2159
-13.324
-13.4248
-13.5173
-13.6004
-13.6731
-13.7349
-13.7854
-8.71519
-8.8265
-9.10936
-9.43048
-9.72284
-9.99319
-10.2437
-10.4708
-10.6777
-10.8694
-11.0491
-11.2188
-11.3808
-11.5364
-11.6868
-11.8327
-11.9747
-12.1131
-12.2481
-12.3798
-12.5081
-12.6328
-12.7536
-12.8699
-12.9814
-13.0871
-13.1865
-13.2787
-13.3628
-13.4382
-13.5042
-13.5608
-13.6079
-8.85418
-8.94354
-9.17495
-9.4499
-9.71217
-9.96142
-10.1972
-10.4155
-10.6173
-10.8059
-10.9836
-11.152
-11.3127
-11.4669
-11.6156
-11.7593
-11.8985
-12.0336
-12.1646
-12.2917
-12.4147
-12.5335
-12.6477
-12.7569
-12.8608
-12.9587
-13.0501
-13.1342
-13.2107
-13.279
-13.3389
-13.3903
-13.4336
-8.96588
-9.03897
-9.23074
-9.4674
-9.70271
-9.93235
-10.154
-10.363
-10.5591
-10.7439
-10.9191
-11.0856
-11.2446
-11.3971
-11.5438
-11.6851
-11.8215
-11.9531
-12.0801
-12.2026
-12.3204
-12.4334
-12.5413
-12.6438
-12.7406
-12.8311
-12.915
-12.9918
-13.0612
-13.1229
-13.1769
-13.2233
-13.2623
-9.05359
-9.11445
-9.27564
-9.48086
-9.6925
-9.90431
-10.1126
-10.3124
-10.5024
-10.6832
-10.8553
-11.0196
-11.1767
-11.3272
-11.4717
-11.6104
-11.7438
-11.872
-11.995
-12.1129
-12.2256
-12.333
-12.4349
-12.5309
-12.6209
-12.7045
-12.7813
-12.8512
-12.9139
-12.9693
-13.0175
-13.0587
-13.0931
-9.11977
-9.17136
-9.30891
-9.48859
-9.67984
-9.87575
-10.0718
-10.2628
-10.4468
-10.6232
-10.7923
-10.9541
-11.109
-11.2574
-11.3995
-11.5357
-11.666
-11.7907
-11.9097
-12.0232
-12.1309
-12.2329
-12.3289
-12.4188
-12.5023
-12.5793
-12.6496
-12.7129
-12.7692
-12.8186
-12.861
-12.8969
-12.9265
-9.16624
-9.21076
-9.33007
-9.48921
-9.66323
-9.84529
-10.0304
-10.2133
-10.3915
-10.5637
-10.7296
-10.8889
-11.0415
-11.1876
-11.3274
-11.4608
-11.5881
-11.7093
-11.8244
-11.9335
-12.0364
-12.1331
-12.2235
-12.3075
-12.3849
-12.4556
-12.5195
-12.5766
-12.6267
-12.6701
-12.7069
-12.7374
-12.7617
-9.19428
-9.23343
-9.33873
-9.48159
-9.64138
-9.81169
-9.98731
-10.1631
-10.336
-10.5043
-10.6672
-10.824
-10.9744
-11.1184
-11.2558
-11.3866
-11.5109
-11.6287
-11.74
-11.8448
-11.9431
-12.0348
-12.1198
-12.1982
-12.2697
-12.3344
-12.3923
-12.4433
-12.4876
-12.5251
-12.5562
-12.5811
-12.6001
-9.20473
-9.23982
-9.33452
-9.46473
-9.61311
-9.77379
-9.94155
-10.1113
-10.2796
-10.4445
-10.6047
-10.7592
-10.9076
-11.0494
-11.1845
-11.3128
-11.4342
-11.5486
-11.6562
-11.7569
-11.8506
-11.9374
-12.0173
-12.0902
-12.1561
-12.2151
-12.2671
-12.3123
-12.3507
-12.3825
-12.408
-12.4273
-12.4407
-9.198
-9.23012
-9.317
-9.43774
-9.57737
-9.73059
-9.89223
-10.0572
-10.2219
-10.3842
-10.5423
-10.695
-10.8417
-10.9817
-11.1148
-11.2407
-11.3594
-11.4708
-11.5749
-11.6716
-11.7611
-11.8433
-11.9182
-11.9859
-12.0464
-12.0999
-12.1463
-12.1858
-12.2186
-12.2448
-12.2646
-12.2784
-12.2862
-9.17416
-9.20421
-9.28564
-9.39971
-9.53313
-9.68103
-9.83833
-9.99994
-10.1622
-10.3225
-10.4791
-10.6305
-10.7757
-10.9142
-11.0454
-11.1692
-11.2853
-11.3937
-11.4944
-11.5874
-11.6727
-11.7503
-11.8205
-11.8831
-11.9385
-11.9866
-12.0275
-12.0616
-12.0888
-12.1095
-12.1238
-12.1321
-12.1343
-9.13287
-9.16164
-9.23974
-9.34977
-9.4795
-9.62437
-9.77939
-9.93943
-10.1007
-10.2604
-10.4165
-10.5675
-10.7121
-10.8496
-10.9796
-11.1016
-11.2155
-11.3213
-11.4189
-11.5084
-11.5898
-11.6632
-11.7288
-11.7867
-11.8371
-11.88
-11.9157
-11.9444
-11.9663
-11.9816
-11.9905
-11.9932
-11.99
-9.0734
-9.10165
-9.17837
-9.2868
-9.41525
-9.55932
-9.71397
-9.87403
-10.0356
-10.1957
-10.3521
-10.5031
-10.6475
-10.7844
-10.9134
-11.0339
-11.1458
-11.2491
-11.3438
-11.4299
-11.5075
-11.5769
-11.6381
-11.6913
-11.7369
-11.7748
-11.8054
-11.8289
-11.8456
-11.8556
-11.8592
-11.8567
-11.8482
-8.9946
-9.02306
-9.10042
-9.2099
-9.33988
-9.48594
-9.64295
-9.80554
-9.96961
-10.1321
-10.2905
-10.4431
-10.5885
-10.7258
-10.8545
-10.9742
-11.0847
-11.1859
-11.278
-11.3611
-11.4352
-11.5007
-11.5578
-11.6066
-11.6474
-11.6805
-11.7062
-11.7247
-11.7362
-11.7411
-11.7395
-11.7318
-11.718
-8.89473
-8.92414
-9.0041
-9.1171
-9.25099
-9.40121
-9.56243
-9.7291
-9.89694
-10.0628
-10.224
-10.3788
-10.5258
-10.664
-10.7928
-10.912
-11.0213
-11.1208
-11.2105
-11.2907
-11.3616
-11.4234
-11.4764
-11.5209
-11.5573
-11.5857
-11.6066
-11.6202
-11.6268
-11.6267
-11.6201
-11.6076
-11.589
-8.77148
-8.80287
-8.88813
-9.00835
-9.1503
-9.309
-9.47872
-9.65341
-9.82851
-10.0006
-10.1671
-10.3261
-10.4761
-10.6164
-10.7463
-10.8656
-10.9743
-11.0723
-11.16
-11.2375
-11.3052
-11.3635
-11.4126
-11.4529
-11.4848
-11.5086
-11.5247
-11.5335
-11.5352
-11.5301
-11.5187
-11.5011
-11.4775
-8.62146
-8.65556
-8.74823
-8.87792
-9.02972
-9.19834
-9.37779
-9.56166
-9.74513
-9.92468
-10.0976
-10.2618
-10.4159
-10.5592
-10.691
-10.8111
-10.9197
-11.0169
-11.1029
-11.1781
-11.243
-11.2979
-11.3433
-11.3796
-11.4072
-11.4266
-11.4381
-11.4422
-11.4393
-11.4296
-11.4135
-11.3915
-11.3636
-8.44069
-8.4799
-8.58577
-8.73266
-8.90261
-9.08928
-9.28573
-9.48477
-9.68129
-9.87177
-10.0535
-10.2247
-10.3841
-10.5309
-10.665
-10.7862
-10.8948
-10.9909
-11.0752
-11.148
-11.2099
-11.2613
-11.3028
-11.3349
-11.3581
-11.3729
-11.3798
-11.3791
-11.3713
-11.3567
-11.3358
-11.3089
-11.2761
-8.22198
-8.26579
-8.38523
-8.54873
-8.73561
-8.93985
-9.15406
-9.37007
-9.58216
-9.78647
-9.98013
-10.1611
-10.3283
-10.4811
-10.6193
-10.7431
-10.8528
-10.9489
-11.0322
-11.1031
-11.1623
-11.2106
-11.2485
-11.2767
-11.2958
-11.3062
-11.3086
-11.3034
-11.2911
-11.2721
-11.2469
-11.2159
-11.1794
-7.9603
-8.01848
-8.17005
-8.37071
-8.59229
-8.82771
-9.06892
-9.30741
-9.5379
-9.75711
-9.9626
-10.1528
-10.3268
-10.4845
-10.6258
-10.7512
-10.8613
-10.9567
-11.0382
-11.1065
-11.1626
-11.2071
-11.2408
-11.2645
-11.2788
-11.2843
-11.2816
-11.2712
-11.2537
-11.2295
-11.1991
-11.163
-11.1213
-7.63394
-7.69452
-7.86578
-8.09254
-8.34398
-8.61346
-8.88942
-9.16019
-9.41938
-9.66325
-9.88911
-10.0955
-10.282
-10.4488
-10.5964
-10.7256
-10.8376
-10.9333
-11.0138
-11.0802
-11.1336
-11.1748
-11.2048
-11.2245
-11.2345
-11.2356
-11.2285
-11.2137
-11.1918
-11.1634
-11.1289
-11.089
-11.044
-7.25307
-7.36849
-7.62453
-7.92158
-8.22309
-8.53199
-8.83959
-9.13543
-9.41506
-9.67584
-9.91556
-10.1331
-10.3282
-10.5013
-10.653
-10.7845
-10.8969
-10.9915
-11.0696
-11.1326
-11.1816
-11.2179
-11.2425
-11.2563
-11.2603
-11.2553
-11.2419
-11.2208
-11.1926
-11.1579
-11.1172
-11.0711
-11.0201
-6.70628
-6.79552
-7.08874
-7.45278
-7.83423
-8.22566
-8.60657
-8.96329
-9.29224
-9.59157
-9.86023
-10.0988
-10.3087
-10.4917
-10.6495
-10.7843
-10.8979
-10.9921
-11.0686
-11.1291
-11.1751
-11.2079
-11.2287
-11.2386
-11.2386
-11.2294
-11.2119
-11.1866
-11.1542
-11.1152
-11.0702
-11.02
-10.9653
-6.19426
-6.51462
-6.97675
-7.38705
-7.78653
-8.20255
-8.60698
-8.98646
-9.33949
-9.66241
-9.95224
-10.2086
-10.4323
-10.625
-10.7886
-10.9255
-11.0382
-11.1289
-11.2001
-11.2537
-11.2917
-11.3158
-11.3275
-11.3281
-11.3189
-11.3006
-11.2742
-11.2402
-11.1991
-11.1513
-11.0972
-11.0375
-10.9723
-4.87827
-5.1971
-5.96391
-6.65459
-7.27978
-7.87252
-8.40095
-8.86511
-9.27553
-9.63616
-9.95049
-10.2229
-10.4574
-10.6572
-10.8256
-10.9655
-11.0797
-11.1707
-11.2409
-11.2927
-11.3282
-11.3491
-11.3571
-11.3538
-11.3404
-11.3179
-11.2871
-11.2486
-11.2024
-11.1488
-11.0868
-11.0175
-10.9358
-4.85545
-5.59718
-6.19264
-6.64715
-7.23262
-7.84958
-8.42165
-8.95163
-9.43334
-9.8563
-10.2196
-10.5269
-10.7823
-10.9907
-11.1576
-11.2882
-11.3874
-11.4598
-11.5091
-11.539
-11.5523
-11.5517
-11.5392
-11.5168
-11.4859
-11.4478
-11.4034
-11.3532
-11.2973
-11.2348
-11.1632
-11.0788
-10.9688
1.41258
-3.19349
-4.96836
-5.80648
-6.79397
-7.65315
-8.33505
-8.92279
-9.43279
-9.86553
-10.2301
-10.5347
-10.7858
-10.9897
-11.1524
-11.2794
-11.3754
-11.4451
-11.4922
-11.5201
-11.5317
-11.5296
-11.5159
-11.4925
-11.4609
-11.4224
-11.3781
-11.3289
-11.2759
-11.2185
-11.1599
-11.094
-11.034
-17.228
-17.425
-17.0999
-15.8258
-13.9714
-12.221
-11.3207
-11.8978
-14.167
-17.9313
-22.7982
-28.1074
-33.0177
-36.8296
-39.011
-39.0895
-36.803
-32.4256
-26.8449
-21.1748
-16.1864
-12.1598
-9.056
-6.72519
-5.02047
-3.82652
-3.05958
-2.66307
-2.60876
-2.89279
-3.53775
-4.56477
-5.94997
-7.82675
-10.3599
-14.0234
-19.5792
-28.6817
-41.7352
-54.862
-65.8327
-75.1424
-82.7158
-87.6311
-88.5713
-84.7741
-76.1548
-63.6535
-49.1881
-35.6489
-25.1433
-17.8843
-13.0182
-9.66472
-7.25582
-5.47667
-4.14799
-3.15353
-2.40957
-1.85371
-1.43931
-1.13152
-0.904079
-0.73713
-0.615523
-0.527655
-0.464573
-0.419309
-0.386401
-0.361556
-0.341495
-0.323965
-0.307662
-0.29262
-0.280422
-0.274408
-0.280349
-0.307568
-0.369697
-0.485856
-0.687496
-1.04823
-1.75665
-3.2768
-6.47167
-12.184
-20.303
-29.1908
-36.0157
-38.1796
-34.8502
-27.1322
-17.9765
-10.0832
-4.75887
-1.88901
-0.607621
-0.145567
-0.0300691
0.167307
-17.2531
-17.295
-16.847
-15.6158
-13.9206
-12.408
-11.7338
-12.3358
-14.4025
-17.8963
-22.3837
-27.205
-31.644
-34.9869
-36.6701
-36.2922
-33.7996
-29.6468
-24.6906
-19.7595
-15.3739
-11.7462
-8.87882
-6.68113
-5.04803
-3.8894
-3.13703
-2.74395
-2.68772
-2.97007
-3.61982
-4.67167
-6.09564
-7.99753
-10.5348
-14.1452
-19.549
-28.328
-41.0632
-54.2337
-65.3612
-74.5508
-81.7836
-86.3669
-87.2182
-83.6503
-75.4641
-63.4103
-49.2275
-35.7702
-25.256
-17.9858
-13.1204
-9.77081
-7.36388
-5.58426
-4.25338
-3.25555
-2.50736
-1.94657
-1.52667
-1.21284
-0.978884
-0.804978
-0.676036
-0.580557
-0.509746
-0.456833
-0.416616
-0.385072
-0.359225
-0.337055
-0.317551
-0.300911
-0.288841
-0.284741
-0.2944
-0.327171
-0.39685
-0.5226
-0.734789
-1.10191
-1.79656
-3.24234
-6.2349
-11.5712
-19.1755
-27.5311
-33.9808
-36.0785
-33.0327
-25.8335
-17.2328
-9.77555
-4.70808
-1.93978
-0.66927
-0.184203
-0.037355
0.161625
-16.9012
-16.9153
-16.4946
-15.44
-14.0174
-12.766
-12.2466
-12.8895
-14.8724
-18.0603
-22.073
-26.3192
-30.0912
-32.7657
-33.8505
-33.1091
-30.6598
-26.9808
-22.7309
-18.4835
-14.6239
-11.3488
-8.69941
-6.62994
-5.06805
-3.94493
-3.20636
-2.81455
-2.75236
-3.0263
-3.67112
-4.73716
-6.19678
-8.12409
-10.661
-14.2009
-19.4216
-27.8321
-40.1725
-53.2994
-64.5554
-73.6664
-80.6052
-84.8694
-85.6055
-82.2195
-74.4407
-62.8534
-49.023
-35.7378
-25.2868
-18.0477
-13.2038
-9.86795
-7.46823
-5.69133
-4.36026
-3.36027
-2.60851
-2.04309
-1.61772
-1.29774
-1.05704
-0.875867
-0.739235
-0.635773
-0.556863
-0.49596
-0.448123
-0.409616
-0.377766
-0.350801
-0.32796
-0.309622
-0.297589
-0.295318
-0.30862
-0.346834
-0.423815
-0.558739
-0.781014
-1.15437
-1.83587
-3.20827
-5.99689
-10.9468
-18.0144
-25.8116
-31.8681
-33.8967
-31.1415
-24.4813
-16.4602
-9.45965
-4.66081
-1.99792
-0.737322
-0.228345
-0.0462298
0.150679
-16.5207
-16.5022
-16.1048
-15.2495
-14.1572
-13.2481
-12.9575
-13.5993
-15.3075
-18.0167
-21.392
-24.8918
-27.9331
-29.9837
-30.6685
-29.8733
-27.7404
-24.6338
-21.023
-17.3445
-13.9275
-10.964
-8.5177
-6.57233
-5.08098
-3.99325
-3.26753
-2.87465
-2.80235
-3.06092
-3.68944
-4.754
-6.2379
-8.18295
-10.7108
-14.1628
-19.1708
-27.1592
-39.0168
-52.0116
-63.3745
-72.4559
-79.1607
-83.1383
-83.749
-80.504
-73.1041
-61.9929
-48.573
-35.5431
-25.227
-18.0633
-13.2641
-9.95356
-7.56729
-5.79688
-4.46798
-3.4673
-2.7128
-2.14316
-1.71246
-1.38627
-1.13862
-0.949888
-0.805214
-0.693392
-0.606004
-0.536753
-0.480972
-0.435219
-0.397121
-0.365149
-0.33879
-0.318597
-0.306461
-0.305885
-0.322673
-0.366115
-0.450078
-0.593712
-0.825458
-1.20433
-1.87217
-3.1712
-5.75488
-10.3119
-16.8283
-24.0508
-29.7054
-31.6661
-29.2074
-23.101
-15.676
-9.14505
-4.62085
-2.06419
-0.811677
-0.278002
-0.056784
0.134222
-16.0657
-16.0225
-15.7025
-15.0839
-14.3246
-13.7241
-13.6027
-14.204
-15.6375
-17.834
-20.5244
-23.2969
-25.6817
-27.2618
-27.7541
-27.0546
-25.2559
-22.6253
-19.5252
-16.3145
-13.2785
-10.5948
-8.33713
-6.51034
-5.08787
-4.03492
-3.32085
-2.92432
-2.83748
-3.07332
-3.67347
-4.718
-6.20947
-8.15675
-10.6594
-13.9989
-18.7583
-26.276
-37.5748
-50.3518
-61.7934
-70.8882
-77.4246
-81.1597
-81.6454
-78.5085
-71.4592
-60.8281
-47.87
-35.1776
-25.0708
-18.0302
-13.3004
-10.0273
-7.66111
-5.90116
-4.57696
-3.5771
-2.82073
-2.24729
-1.81138
-1.47888
-1.22404
-1.02739
-0.874263
-0.753637
-0.657328
-0.579308
-0.515203
-0.461875
-0.417255
-0.380058
-0.349999
-0.327795
-0.315414
-0.316388
-0.336497
-0.384936
-0.475507
-0.62729
-0.867778
-1.25137
-1.905
-3.13115
-5.51163
-9.67587
-15.6366
-22.2777
-27.5259
-29.4182
-27.2577
-21.7128
-14.8934
-8.83901
-4.59155
-2.14012
-0.8933
-0.334082
-0.0698042
0.111848
-15.6879
-15.6503
-15.4096
-14.969
-14.4482
-14.0672
-14.0651
-14.6236
-15.8162
-17.585
-19.7255
-21.918
-23.7944
-25.0198
-25.3553
-24.7099
-23.1521
-20.8858
-18.1973
-15.38
-12.6751
-10.2422
-8.15904
-6.44502
-5.08943
-4.0704
-3.36671
-2.96387
-2.85801
-3.0637
-3.62306
-4.62573
-6.10178
-8.0321
-10.4911
-13.6945
-18.1707
-25.1774
-35.8499
-48.3142
-59.7838
-68.9201
-75.354
-78.9009
-79.2782
-76.2328
-69.5136
-59.3652
-46.9142
-34.6374
-24.8143
-17.9454
-13.3107
-10.0882
-7.74914
-6.00399
-4.68719
-3.68983
-2.93254
-2.35578
-1.91479
-1.57588
-1.31357
-1.10863
-0.946591
-0.816671
-0.710951
-0.623701
-0.550855
-0.48959
-0.438142
-0.395461
-0.36149
-0.33709
-0.3243
-0.326664
-0.349907
-0.403087
-0.499862
-0.659183
-0.907644
-1.29523
-1.93468
-3.0902
-5.27315
-9.0517
-14.4609
-20.5212
-25.3627
-27.1869
-25.324
-20.341
-14.1283
-8.54992
-4.57616
-2.22648
-0.982325
-0.396748
-0.0855674
0.0835092
-15.3688
-15.339
-15.1609
-14.8525
-14.5076
-14.2865
-14.3645
-14.8757
-15.8735
-17.3078
-19.0153
-20.7428
-22.1986
-23.1166
-23.3082
-22.6966
-21.3279
-19.358
-17.0131
-14.5315
-12.1158
-9.9076
-7.98512
-6.37768
-5.08654
-4.10035
-3.40573
-2.99398
-2.86467
-3.03295
-3.53945
-4.47739
-5.9083
-7.79631
-10.1888
-13.235
-17.4
-23.8643
-33.8504
-45.8993
-57.3229
-66.5082
-72.8988
-76.3192
-76.6206
-73.6685
-67.2707
-57.6104
-45.709
-33.9226
-24.4563
-17.8077
-13.2942
-10.1356
-7.83125
-6.10547
-4.79897
-3.80588
-3.0487
-2.46911
-2.02318
-1.67773
-1.40765
-1.19397
-1.0225
-0.882724
-0.767035
-0.670024
-0.587961
-0.518345
-0.459724
-0.411276
-0.373164
-0.346373
-0.332994
-0.336566
-0.362733
-0.420368
-0.522903
-0.689089
-0.944667
-1.33549
-1.96097
-3.04925
-5.04361
-8.44985
-13.3206
-18.8094
-23.2495
-25.0069
-23.437
-19.0089
-13.3954
-8.2853
-4.57745
-2.32394
-1.07899
-0.466301
-0.10457
0.0491728
-15.0893
-15.0734
-14.9516
-14.7465
-14.531
-14.4225
-14.5496
-15.0105
-15.8407
-16.9955
-18.3449
-19.6908
-20.8049
-21.4759
-21.5504
-20.9621
-19.7436
-18.0162
-15.9583
-13.7626
-11.5985
-9.59127
-7.81642
-6.30936
-5.08006
-4.12547
-3.43871
-3.01568
-2.85878
-2.98289
-3.4253
-4.27628
-5.62702
-7.44125
-9.73726
-12.6051
-16.4381
-22.3398
-31.5912
-43.1221
-54.406
-63.6217
-70.0137
-73.3709
-73.6437
-70.8069
-64.7357
-55.5741
-44.2629
-33.0379
-23.9987
-17.6172
-13.2504
-10.1692
-7.9073
-6.20571
-4.91257
-3.92564
-3.16964
-2.58776
-2.13703
-1.7849
-1.50669
-1.28377
-1.10227
-0.952017
-0.825728
-0.718361
-0.626543
-0.548115
-0.481937
-0.427402
-0.384888
-0.35549
-0.341327
-0.345911
-0.374775
-0.436562
-0.54439
-0.716721
-0.978486
-1.37172
-1.98355
-3.00879
-4.82623
-7.87952
-12.2337
-17.1695
-21.2196
-22.9121
-21.6272
-17.7395
-12.7093
-8.05216
-4.59762
-2.43274
-1.18319
-0.542665
-0.126999
0.0091101
-14.8408
-14.839
-14.7624
-14.6339
-14.511
-14.4797
-14.6333
-15.0419
-15.728
-16.6527
-17.7123
-18.7504
-19.5868
-20.0534
-20.0278
-19.4555
-18.3597
-16.8332
-15.0164
-13.065
-11.1209
-9.29343
-7.654
-6.24112
-5.07089
-4.14663
-3.46665
-3.03038
-2.84228
-2.91638
-3.28497
-4.02977
-5.26352
-6.96697
-9.12958
-11.7965
-15.2845
-20.6171
-29.1019
-40.0186
-51.0534
-60.2531
-66.6703
-70.0234
-70.3253
-67.6429
-61.9168
-53.27
-42.5897
-31.9932
-23.4465
-17.3756
-13.1795
-10.189
-7.97737
-6.30499
-5.02841
-4.04962
-3.29595
-2.71234
-2.25694
-1.89795
-1.6112
-1.37848
-1.18628
-1.02481
-0.887203
-0.768802
-0.666619
-0.578853
-0.504683
-0.443708
-0.39651
-0.364269
-0.349113
-0.354497
-0.385815
-0.451432
-0.564069
-0.741789
-1.00875
-1.40352
-2.00214
-2.96918
-4.62369
-7.34873
-11.2166
-15.6267
-19.3037
-20.9339
-19.9227
-16.5538
-12.0828
-7.85622
-4.63816
-2.55281
-1.29471
-0.625699
-0.153043
-0.0362938
-14.6139
-14.6255
-14.5851
-14.5142
-14.4573
-14.4772
-14.6406
-14.9968
-15.5586
-16.2918
-17.1129
-17.8988
-18.5081
-18.8085
-18.702
-18.1435
-17.1485
-15.7886
-14.1747
-12.4327
-10.6809
-9.0142
-7.49869
-6.17391
-5.05991
-4.16475
-3.49073
-3.03981
-2.81773
-2.83725
-3.12448
-3.74887
-4.83181
-6.384
-8.37206
-10.8135
-13.9523
-18.7244
-26.4294
-36.6481
-47.3157
-56.4268
-62.8688
-66.2667
-66.6599
-64.1825
-58.8289
-50.7184
-40.7096
-30.804
-22.8083
-17.0863
-13.0824
-10.1952
-8.04174
-6.4037
-5.14699
-4.1784
-3.42827
-2.84351
-2.38359
-2.01752
-1.72176
-1.47856
-1.27489
-1.10139
-0.951637
-0.821429
-0.70819
-0.610496
-0.527841
-0.460036
-0.407842
-0.372502
-0.356131
-0.362093
-0.395609
-0.464724
-0.581675
-0.764011
-1.03511
-1.43049
-2.01632
-2.93041
-4.43764
-6.86334
-10.2824
-14.2018
-17.5281
-19.0999
-18.348
-15.47
-11.5265
-7.70167
-4.69976
-2.68381
-1.41325
-0.715072
-0.182668
-0.0863993
-14.4044
-14.4272
-14.4144
-14.3845
-14.372
-14.4224
-14.583
-14.8873
-15.3413
-15.9149
-16.5411
-17.1228
-17.5488
-17.7147
-17.5424
-16.9951
-16.0836
-14.8632
-13.4213
-11.8596
-10.2763
-8.75338
-7.35115
-6.10858
-5.04804
-4.18084
-3.51228
-3.04603
-2.78825
-2.75024
-2.95142
-3.44764
-4.35362
-5.71498
-7.48824
-9.67759
-12.4709
-16.706
-23.638
-33.0928
-43.276
-52.2064
-58.6477
-62.1232
-62.6658
-60.4467
-55.4966
-47.9462
-38.6494
-29.4912
-22.0957
-16.7539
-12.9608
-10.1884
-8.10091
-6.50239
-5.26895
-4.31271
-3.56738
-2.98209
-2.51775
-2.14435
-1.83901
-1.58458
-1.36854
-1.18206
-1.01922
-0.876325
-0.751244
-0.642952
-0.551256
-0.476193
-0.418662
-0.379951
-0.362129
-0.368439
-0.403889
-0.47616
-0.596931
-0.783106
-1.05727
-1.45223
-2.02562
-2.89205
-4.26849
-6.42667
-9.43985
-12.9107
-15.9136
-17.4322
-16.923
-14.5025
-11.0479
-7.59084
-4.78237
-2.82528
-1.53852
-0.810413
-0.215786
-0.140432
-14.2062
-14.2376
-14.2448
-14.2434
-14.2594
-14.3256
-14.475
-14.7296
-15.0903
-15.531
-15.9973
-16.4127
-16.6901
-16.7472
-16.5225
-15.9861
-15.1451
-14.0423
-12.7467
-11.3404
-9.90494
-8.51071
-7.21191
-6.04594
-5.03616
-4.19598
-3.53276
-3.05126
-2.7574
-2.66072
-2.77453
-3.14155
-3.857
-4.99463
-6.52015
-8.43235
-10.8891
-14.6234
-20.8082
-29.4558
-39.0475
-47.6938
-54.0857
-57.6509
-58.3887
-56.4743
-51.9552
-44.989
-36.4435
-28.0811
-21.3232
-16.3844
-12.8167
-10.1696
-8.15562
-6.60182
-5.39508
-4.45339
-3.71417
-3.12899
-2.66034
-2.27928
-1.96372
-1.69717
-1.46773
-1.26717
-1.09016
-0.933565
-0.795746
-0.6761
-0.574744
-0.491943
-0.428705
-0.386333
-0.366818
-0.373242
-0.410359
-0.485444
-0.609548
-0.798798
-1.0749
-1.46835
-2.0295
-2.85332
-4.11549
-6.03939
-8.69344
-11.7626
-14.4739
-15.946
-15.6612
-13.6605
-10.6511
-7.52415
-4.8854
-2.97684
-1.67034
-0.911308
-0.252192
-0.197434
-14.017
-14.0542
-14.0748
-14.0914
-14.1237
-14.1947
-14.3269
-14.5341
-14.8138
-15.1433
-15.4786
-15.7594
-15.9173
-15.8878
-15.6222
-15.0965
-14.3156
-13.3126
-12.1421
-10.8703
-9.56484
-8.28577
-7.08137
-5.98669
-5.02515
-4.21125
-3.55368
-3.05784
-2.72896
-2.57447
-2.60316
-2.8454
-3.3714
-4.26703
-5.52476
-7.14325
-9.27592
-12.5539
-18.0334
-25.8546
-34.7659
-43.0227
-49.2981
-52.9422
-53.9008
-52.3207
-48.2509
-41.8909
-34.1336
-26.6044
-20.5073
-15.9848
-12.653
-10.1403
-8.20689
-6.70289
-5.52632
-4.60145
-3.86971
-3.2853
-2.81242
-2.4233
-2.09675
-1.81704
-1.573
-1.35709
-1.16467
-0.993217
-0.84164
-0.709785
-0.598075
-0.507007
-0.437661
-0.391323
-0.369868
-0.376175
-0.414695
-0.492256
-0.61922
-0.810813
-1.08776
-1.47851
-2.02737
-2.8131
-3.97678
-5.69943
-8.0426
-10.7604
-13.2148
-14.6488
-14.5693
-12.9476
-10.3364
-7.50031
-5.00814
-3.13844
-1.80877
-1.01738
-0.291646
-0.256359
-13.833
-13.8734
-13.902
-13.9287
-13.9681
-14.0362
-14.1478
-14.3107
-14.5204
-14.7572
-14.9854
-15.1573
-15.2192
-15.1209
-14.824
-14.3094
-13.5804
-12.6629
-11.5999
-10.445
-9.25399
-8.07807
-6.9598
-5.93147
-5.0158
-4.2277
-3.57652
-3.06803
-2.70659
-2.49729
-2.44633
-2.57272
-2.92326
-3.57924
-4.56561
-5.89083
-7.71522
-10.5851
-15.4128
-22.4115
-30.5764
-38.3457
-44.4257
-48.1153
-49.2941
-48.0543
-44.4394
-38.7047
-31.768
-25.095
-19.6652
-15.5625
-12.4729
-10.1022
-8.256
-6.80674
-5.66379
-4.75807
-4.03524
-3.45227
-2.9752
-2.57754
-2.2391
-1.94503
-1.68498
-1.45226
-1.24298
-1.05534
-0.888833
-0.743803
-0.620964
-0.521046
-0.445163
-0.394544
-0.370905
-0.376872
-0.416544
-0.496256
-0.62563
-0.81888
-1.09561
-1.48241
-2.01865
-2.77004
-3.84952
-5.40226
-7.4821
-9.89977
-12.134
-13.5397
-13.6461
-12.3613
-10.1002
-7.51705
-5.15029
-3.3106
-1.95412
-1.12829
-0.33374
-0.316098
-13.6533
-13.6943
-13.7263
-13.757
-13.7968
-13.8566
-13.9456
-14.0675
-14.2167
-14.376
-14.5166
-14.6006
-14.5861
-14.4339
-14.1139
-13.6109
-12.9274
-12.0835
-11.1134
-10.0603
-8.97043
-7.88703
-6.84737
-5.88081
-5.00887
-4.24632
-3.60271
-3.08394
-2.69365
-2.43464
-2.31193
-2.33552
-2.53344
-2.97265
-3.70265
-4.75552
-6.29511
-8.80412
-13.041
-19.2416
-26.6195
-33.8176
-39.6186
-43.3
-44.6697
-43.7501
-40.5837
-35.4908
-29.4
-23.5875
-18.8142
-15.125
-12.2802
-10.0576
-8.30453
-6.91472
-5.80885
-4.92465
-4.21223
-3.63142
-3.15017
-2.74337
-2.39196
-2.0821
-1.80441
-1.55315
-1.32534
-1.11996
-0.937201
-0.777906
-0.64307
-0.533663
-0.450785
-0.395562
-0.369502
-0.374924
-0.415521
-0.497082
-0.628444
-0.822723
-1.09825
-1.47982
-2.00279
-2.72264
-3.73016
-5.14128
-7.00246
-9.16984
-11.2206
-12.609
-12.8824
-11.8931
-9.93645
-7.57221
-5.3126
-3.49461
-2.10702
-1.24385
-0.378119
-0.375534
-13.476
-13.5153
-13.5471
-13.5771
-13.6126
-13.6605
-13.7263
-13.8108
-13.9079
-14.0028
-14.0719
-14.0854
-14.0105
-13.8165
-13.4801
-12.9894
-12.3461
-11.5661
-10.6767
-9.71279
-8.71234
-7.71202
-6.74417
-5.83516
-5.005
-4.26795
-3.63344
-3.10735
-2.6928
-2.3909
-2.206
-2.14243
-2.2155
-2.47507
-2.98221
-3.79966
-5.09032
-7.28296
-10.9933
-16.4385
-23.0149
-29.5772
-35.018
-38.6222
-40.1254
-39.4841
-36.7517
-32.3166
-27.0853
-22.1146
-17.9696
-14.6798
-12.0788
-10.0089
-8.35429
-7.02841
-5.96304
-5.10287
-4.40245
-3.82452
-3.33904
-2.92238
-2.55671
-2.22936
-1.9321
-1.66028
-1.41198
-1.1871
-0.986559
-0.811777
-0.663968
-0.544376
-0.454023
-0.393877
-0.365179
-0.36988
-0.411211
-0.494355
-0.627324
-0.822071
-1.0955
-1.47061
-1.9794
-2.6695
-3.6148
-4.90843
-6.59081
-8.55418
-10.4575
-11.8385
-12.2615
-11.5302
-9.83848
-7.66522
-5.49743
-3.69254
-2.26832
-1.36382
-0.424655
-0.433571
-13.3008
-13.3366
-13.3654
-13.3912
-13.419
-13.4531
-13.4959
-13.5466
-13.5989
-13.64
-13.651
-13.6081
-13.4857
-13.26
-12.9128
-12.4348
-11.8276
-11.1036
-10.2846
-9.399
-8.47794
-7.55235
-6.65017
-5.79483
-5.00471
-4.29327
-3.66966
-3.13965
-2.70607
-2.36928
-2.13271
-1.99821
-1.97515
-2.09792
-2.42888
-3.0558
-4.14299
-6.0625
-9.30953
-14.0581
-19.8451
-25.7296
-30.7381
-34.185
-35.7439
-35.327
-33.0146
-29.2542
-24.8765
-20.7037
-17.1442
-14.2337
-11.873
-9.95887
-8.40736
-7.14962
-6.12823
-5.29469
-4.60796
-4.03371
-3.5439
-3.11648
-2.73502
-2.38817
-2.06903
-1.77428
-1.50321
-1.25676
-1.03668
-0.844965
-0.683157
-0.552625
-0.454297
-0.388917
-0.357391
-0.361239
-0.403157
-0.48767
-0.621915
-0.816639
-1.08721
-1.45472
-1.94825
-2.60939
-3.49961
-4.695
-6.23202
-8.03203
-9.82091
-11.2035
-11.7618
-11.2585
-9.80176
-7.79834
-5.70883
-3.90713
-2.43921
-1.488
-0.47334
-0.489232
-13.1269
-13.1577
-13.1813
-13.2006
-13.2187
-13.2377
-13.2584
-13.2788
-13.2928
-13.2895
-13.2534
-13.1658
-13.0065
-12.7571
-12.4036
-11.9389
-11.3643
-10.6897
-9.93261
-9.11597
-8.26556
-7.40731
-6.56525
-5.76005
-5.00837
-4.32275
-3.71198
-3.18166
-2.73452
-2.37107
-2.09378
-1.90411
-1.81071
-1.8378
-2.04262
-2.52514
-3.45252
-5.13969
-7.98075
-12.1026
-17.1389
-22.3307
-26.8489
-30.052
-31.5829
-31.34
-29.4478
-26.376
-22.8177
-19.3748
-16.348
-13.7929
-11.667
-9.91061
-8.466
-7.2804
-6.30654
-5.50243
-4.83128
-4.26155
-3.76725
-3.32799
-2.92886
-2.56009
-2.21634
-1.89584
-1.59929
-1.32886
-1.08725
-0.87698
-0.70001
-0.557733
-0.450923
-0.380024
-0.345529
-0.34845
-0.39088
-0.476618
-0.611879
-0.806169
-1.07325
-1.4322
-1.90936
-2.54157
-3.38134
-4.49274
-5.91056
-7.57986
-9.28219
-10.6758
-11.3613
-11.0674
-9.82635
-7.97699
-5.95231
-4.14173
-2.62114
-1.61651
-0.52423
-0.541634
-12.9547
-12.9795
-12.9964
-13.0075
-13.0145
-13.0182
-13.0182
-13.0117
-12.9931
-12.953
-12.8789
-12.7558
-12.5683
-12.3018
-11.9457
-11.4946
-10.9497
-10.319
-9.61652
-8.86098
-8.0736
-7.27616
-6.48922
-5.73091
-5.01619
-4.35667
-3.76068
-3.23376
-2.7787
-2.39668
-2.08961
-1.85948
-1.71638
-1.68124
-1.80394
-2.18366
-2.98378
-4.469
-6.94729
-10.5083
-14.8519
-19.3651
-23.3543
-26.2334
-27.6713
-27.5838
-26.1351
-23.7462
-20.9378
-18.139
-15.5879
-13.3632
-11.4653
-9.86714
-8.53264
-7.42307
-6.50045
-5.72883
-5.07534
-4.5111
-4.0121
-3.55967
-3.14064
-2.74703
-2.37538
-2.02577
-1.70058
-1.40336
-1.13787
-0.907246
-0.713809
-0.558919
-0.443116
-0.366449
-0.328905
-0.330899
-0.373845
-0.460747
-0.596842
-0.790368
-1.05343
-1.40305
-1.86286
-2.46576
-3.25776
-4.29481
-5.61259
-7.17555
-8.81343
-10.2304
-11.0445
-10.9532
-9.91734
-8.20911
-6.23463
-4.40057
-2.81582
-1.74976
-0.577449
-0.589965
-12.7841
-12.8018
-12.8111
-12.813
-12.8083
-12.7971
-12.7779
-12.7478
-12.7015
-12.6312
-12.5266
-12.376
-12.1671
-11.8889
-11.5332
-11.0959
-10.5783
-9.98676
-9.33276
-8.63152
-7.90055
-7.15811
-6.42177