/*--------------------------------*- C++ -*----------------------------------*\
| =========                 |                                                 |
| \\      /  F ield         | OpenFOAM: The Open Source CFD Toolbox           |
|  \\    /   O peration     | Version:  2.1.1                                 |
|   \\  /    A nd           | Web:      www.OpenFOAM.org                      |
|    \\/     M anipulation  |                                                 |
\*---------------------------------------------------------------------------*/
FoamFile
{
    version     2.0;
    format      ascii;
    class       surfaceScalarField;
    location    "0.175";
    object      phi;
}
// * * * * * * * * * * * * * * * * * * * * * * * * * * * * * * * * * * * * * //

dimensions      [0 3 -1 0 0 0 0];

internalField   nonuniform List<scalar> 
13452
(
4.60045e-05
2.24828e-05
2.96815e-05
1.6323e-05
2.12218e-05
8.45965e-06
1.73404e-05
3.88139e-06
1.57215e-05
1.61895e-06
1.49404e-05
7.81076e-07
1.44602e-05
4.80213e-07
1.4104e-05
3.56251e-07
1.38118e-05
2.9214e-07
1.35687e-05
2.43157e-07
1.33703e-05
1.98322e-07
1.32135e-05
1.56886e-07
1.30943e-05
1.19154e-07
1.30092e-05
8.50843e-08
1.29549e-05
5.43078e-08
1.29291e-05
2.57964e-08
1.29304e-05
-1.32936e-09
1.29566e-05
-2.61207e-08
1.30077e-05
-5.11128e-08
1.30836e-05
-7.59439e-08
1.3185e-05
-1.01348e-07
1.3313e-05
-1.28066e-07
1.34699e-05
-1.56894e-07
1.36581e-05
-1.88191e-07
1.38809e-05
-2.22813e-07
1.41427e-05
-2.61791e-07
1.44497e-05
-3.06979e-07
1.48091e-05
-3.59432e-07
1.52351e-05
-4.25923e-07
1.57363e-05
-5.0127e-07
1.63648e-05
-6.28468e-07
1.70877e-05
-7.22942e-07
-1.23764e-06
1.83254e-05
7.49174e-05
1.80093e-05
7.04333e-05
2.08071e-05
6.33713e-05
1.55216e-05
5.67532e-05
1.04995e-05
5.16801e-05
6.69206e-06
4.80741e-05
4.38704e-06
4.55094e-05
3.04492e-06
4.36443e-05
2.22141e-06
4.22461e-05
1.69036e-06
4.11655e-05
1.32369e-06
4.0311e-05
1.05287e-06
3.96252e-05
8.4268e-07
3.90711e-05
6.73259e-07
3.86238e-05
5.32357e-07
3.82662e-05
4.1191e-07
3.79859e-05
3.06055e-07
3.77738e-05
2.10816e-07
3.76243e-05
1.23326e-07
3.75333e-05
3.99806e-08
3.74978e-05
-4.05169e-08
3.75162e-05
-1.19756e-07
3.75879e-05
-1.99728e-07
3.77136e-05
-2.82598e-07
3.78949e-05
-3.69534e-07
3.81348e-05
-4.62633e-07
3.84374e-05
-5.64395e-07
3.88088e-05
-6.78399e-07
3.92577e-05
-8.08361e-07
3.97956e-05
-9.63755e-07
4.04421e-05
-1.14785e-06
4.12166e-05
-1.4029e-06
4.22102e-05
-1.71657e-06
-2.2877e-06
4.32603e-05
7.8522e-05
1.19439e-05
8.23429e-05
1.69862e-05
8.30188e-05
1.48458e-05
8.15341e-05
1.19841e-05
7.90547e-05
9.17155e-06
7.64223e-05
7.01941e-06
7.39673e-05
5.49988e-06
7.17922e-05
4.39658e-06
6.99096e-05
3.5729e-06
6.82952e-05
2.93811e-06
6.69159e-05
2.43212e-06
6.57404e-05
2.0182e-06
6.47411e-05
1.67262e-06
6.38945e-05
1.37891e-06
6.31815e-05
1.12498e-06
6.25859e-05
9.01565e-07
6.20952e-05
7.0156e-07
6.1699e-05
5.19516e-07
6.13887e-05
3.5031e-07
6.11578e-05
1.90396e-07
6.10023e-05
3.57129e-08
6.09204e-05
-1.17866e-07
6.09111e-05
-2.73277e-07
6.09731e-05
-4.31564e-07
6.1107e-05
-5.96456e-07
6.13144e-05
-7.71868e-07
6.15989e-05
-9.62848e-07
6.19658e-05
-1.17526e-06
6.24213e-05
-1.41931e-06
6.29774e-05
-1.70389e-06
6.36329e-05
-2.05837e-06
6.44066e-05
-2.49027e-06
-3.0718e-06
6.51907e-05
7.81478e-05
8.32269e-06
8.19266e-05
1.32074e-05
8.46268e-05
1.21456e-05
8.62583e-05
1.03526e-05
8.69533e-05
8.47657e-06
8.70665e-05
6.9062e-06
8.68414e-05
5.72503e-06
8.64205e-05
4.81747e-06
8.58954e-05
4.09794e-06
8.5322e-05
3.51159e-06
8.47346e-05
3.01945e-06
8.41562e-05
2.59664e-06
8.36021e-05
2.22674e-06
8.30831e-05
1.89788e-06
8.26064e-05
1.60163e-06
8.21765e-05
1.3315e-06
8.17959e-05
1.08218e-06
8.14662e-05
8.49185e-07
8.11883e-05
6.28278e-07
8.09627e-05
4.15996e-07
8.07893e-05
2.09023e-07
8.06663e-05
5.16722e-09
8.05946e-05
-2.01584e-07
8.05746e-05
-4.11563e-07
8.06081e-05
-6.29895e-07
8.06968e-05
-8.60611e-07
8.08429e-05
-1.10898e-06
8.10489e-05
-1.38119e-06
8.13159e-05
-1.68631e-06
8.16455e-05
-2.03349e-06
8.20277e-05
-2.44065e-06
8.2454e-05
-2.9165e-06
-3.47815e-06
8.28603e-05
7.89931e-05
5.98543e-06
8.15967e-05
1.06039e-05
8.35282e-05
1.0214e-05
8.4977e-05
8.90379e-06
8.60007e-05
7.4529e-06
8.67487e-05
6.15818e-06
8.73246e-05
5.14915e-06
8.77774e-05
4.36466e-06
8.81395e-05
3.73582e-06
8.84329e-05
3.21824e-06
8.86724e-05
2.7799e-06
8.88699e-05
2.39914e-06
8.90346e-05
2.06208e-06
8.91733e-05
1.75916e-06
8.92922e-05
1.48269e-06
8.93972e-05
1.2265e-06
8.94936e-05
9.85825e-07
8.9586e-05
7.56794e-07
8.96783e-05
5.3592e-07
8.97741e-05
3.20206e-07
8.98756e-05
1.07516e-07
8.99847e-05
-1.03933e-07
9.01014e-05
-3.18283e-07
9.02279e-05
-5.38084e-07
9.03655e-05
-7.67448e-07
9.05151e-05
-1.01025e-06
9.06772e-05
-1.2711e-06
9.08514e-05
-1.5553e-06
9.10348e-05
-1.86974e-06
9.12225e-05
-2.22122e-06
9.1401e-05
-2.61907e-06
9.15516e-05
-3.06714e-06
-3.56273e-06
9.16362e-05
8.04647e-05
4.36661e-06
8.25117e-05
8.55694e-06
8.40048e-05
8.72081e-06
8.50732e-05
7.83542e-06
8.58062e-05
6.71986e-06
8.63321e-05
5.63234e-06
8.6752e-05
4.72925e-06
8.71132e-05
4.00343e-06
8.74391e-05
3.40996e-06
8.77413e-05
2.91602e-06
8.80251e-05
2.49615e-06
8.8293e-05
2.13123e-06
8.85472e-05
1.80789e-06
8.87897e-05
1.51662e-06
8.90221e-05
1.25026e-06
8.92455e-05
1.00311e-06
8.94608e-05
7.7054e-07
8.96689e-05
5.48707e-07
8.98706e-05
3.34216e-07
9.00667e-05
1.24157e-07
9.02584e-05
-8.42167e-08
9.04482e-05
-2.93703e-07
9.06374e-05
-5.07517e-07
9.0827e-05
-7.2772e-07
9.1017e-05
-9.57403e-07
9.12067e-05
-1.19998e-06
9.13949e-05
-1.45927e-06
9.1579e-05
-1.73938e-06
9.17543e-05
-2.04504e-06
9.19135e-05
-2.38046e-06
9.20438e-05
-2.74937e-06
9.21283e-05
-3.15168e-06
-3.57809e-06
9.21437e-05
8.22357e-05
3.22941e-06
8.39008e-05
6.89193e-06
8.5196e-05
7.42554e-06
8.614e-05
6.89139e-06
8.6795e-05
6.06491e-06
8.72508e-05
5.17652e-06
8.75952e-05
4.38485e-06
8.78775e-05
3.72119e-06
8.81241e-05
3.16331e-06
8.83505e-05
2.68961e-06
8.85649e-05
2.2818e-06
8.87715e-05
1.92459e-06
8.89729e-05
1.60647e-06
8.91707e-05
1.31888e-06
8.93658e-05
1.05516e-06
8.9559e-05
8.09927e-07
8.97507e-05
5.78745e-07
8.99416e-05
3.57869e-07
9.01318e-05
1.43968e-07
9.0322e-05
-6.59987e-08
9.05126e-05
-2.74824e-07
9.0704e-05
-4.85086e-07
9.0896e-05
-6.99524e-07
9.10886e-05
-9.20352e-07
9.12814e-05
-1.15017e-06
9.14733e-05
-1.39185e-06
9.16624e-05
-1.64837e-06
9.18457e-05
-1.92272e-06
9.20184e-05
-2.21775e-06
9.21734e-05
-2.53546e-06
9.23002e-05
-2.87612e-06
9.23854e-05
-3.2369e-06
-3.60681e-06
9.24141e-05
8.42182e-05
2.42677e-06
8.55568e-05
5.55332e-06
8.66865e-05
6.29587e-06
8.75544e-05
6.02343e-06
8.81938e-05
5.4255e-06
8.86576e-05
4.71276e-06
8.9011e-05
4.0314e-06
8.92979e-05
3.43435e-06
8.95438e-05
2.9174e-06
8.97649e-05
2.46855e-06
8.99707e-05
2.07599e-06
9.01669e-05
1.7284e-06
9.0357e-05
1.41638e-06
9.05433e-05
1.13257e-06
9.07274e-05
8.71054e-07
9.09104e-05
6.26905e-07
9.10932e-05
3.95982e-07
9.12763e-05
1.74733e-07
9.14603e-05
-4.00138e-08
9.16453e-05
-2.5106e-07
9.18316e-05
-4.61036e-07
9.20189e-05
-6.72454e-07
9.22072e-05
-8.87748e-07
9.23958e-05
-1.10904e-06
9.25842e-05
-1.33852e-06
9.27708e-05
-1.5785e-06
9.29536e-05
-1.83116e-06
9.31293e-05
-2.09843e-06
9.32933e-05
-2.3817e-06
9.34391e-05
-2.68127e-06
9.35583e-05
-2.99536e-06
9.36411e-05
-3.31969e-06
-3.64365e-06
9.3678e-05
8.63736e-05
1.85193e-06
8.74475e-05
4.47942e-06
8.84265e-05
5.31679e-06
8.92146e-05
5.23541e-06
8.98247e-05
4.81536e-06
9.02876e-05
4.24986e-06
9.06504e-05
3.66856e-06
9.09497e-05
3.13506e-06
9.12081e-05
2.65908e-06
9.144e-05
2.23658e-06
9.16549e-05
1.86108e-06
9.18586e-05
1.52477e-06
9.20546e-05
1.22031e-06
9.22457e-05
9.41532e-07
9.24334e-05
6.83278e-07
9.26192e-05
4.41127e-07
9.28039e-05
2.11282e-07
9.29882e-05
-9.56562e-09
9.31726e-05
-2.24362e-07
9.33572e-05
-4.35731e-07
9.35423e-05
-6.46135e-07
9.37277e-05
-8.57856e-07
9.3913e-05
-1.07304e-06
9.40976e-05
-1.29361e-06
9.42805e-05
-1.5214e-06
9.44601e-05
-1.75813e-06
9.46343e-05
-2.00531e-06
9.47998e-05
-2.26395e-06
9.49524e-05
-2.53433e-06
9.50867e-05
-2.81557e-06
9.51962e-05
-3.10486e-06
9.52739e-05
-3.39735e-06
-3.68366e-06
9.53139e-05
8.86691e-05
1.43288e-06
8.95308e-05
3.61763e-06
9.03764e-05
4.47125e-06
9.10889e-05
4.52289e-06
9.16655e-05
4.23879e-06
9.21213e-05
3.79405e-06
9.24882e-05
3.3016e-06
9.27955e-05
2.8278e-06
9.30626e-05
2.39198e-06
9.33027e-05
1.99642e-06
9.35249e-05
1.63894e-06
9.37348e-05
1.31485e-06
9.39363e-05
1.01879e-06
9.4132e-05
7.45826e-07
9.43237e-05
4.91571e-07
9.45127e-05
2.52144e-07
9.46999e-05
2.41089e-08
9.48859e-05
-1.95575e-07
9.50712e-05
-4.09621e-07
9.52559e-05
-6.20469e-07
9.54401e-05
-8.3037e-07
9.56237e-05
-1.04139e-06
9.5806e-05
-1.2554e-06
9.59865e-05
-1.47407e-06
9.61639e-05
-1.69883e-06
9.63367e-05
-1.93095e-06
9.65027e-05
-2.17127e-06
9.66589e-05
-2.42013e-06
9.68016e-05
-2.67705e-06
9.69265e-05
-2.94046e-06
9.70288e-05
-3.20713e-06
9.71037e-05
-3.47233e-06
-3.72819e-06
9.71483e-05
9.10828e-05
1.1214e-06
9.17765e-05
2.92392e-06
9.25058e-05
3.74194e-06
9.31493e-05
3.87939e-06
9.36912e-05
3.69691e-06
9.41357e-05
3.34949e-06
9.4503e-05
2.93431e-06
9.48155e-05
2.51534e-06
9.50896e-05
2.11782e-06
9.53372e-05
1.74891e-06
9.55662e-05
1.40986e-06
9.57824e-05
1.09866e-06
9.59895e-05
8.11752e-07
9.61899e-05
5.45351e-07
9.63857e-05
2.95851e-07
9.65779e-05
5.98994e-08
9.67676e-05
-1.65561e-07
9.69553e-05
-3.83274e-07
9.71414e-05
-5.95726e-07
9.73261e-05
-8.05154e-07
9.75093e-05
-1.01359e-06
9.76908e-05
-1.22287e-06
9.787e-05
-1.4346e-06
9.80461e-05
-1.65015e-06
9.82179e-05
-1.87065e-06
9.83838e-05
-2.09689e-06
9.85418e-05
-2.3293e-06
9.86894e-05
-2.56768e-06
9.88234e-05
-2.81108e-06
9.89406e-05
-3.05761e-06
9.90375e-05
-3.30405e-06
9.91113e-05
-3.54614e-06
-3.77754e-06
9.91606e-05
9.36011e-05
8.84963e-07
9.41625e-05
2.36255e-06
9.47909e-05
3.11349e-06
9.53709e-05
3.29941e-06
9.58777e-05
3.19007e-06
9.63083e-05
2.91895e-06
9.66736e-05
2.56903e-06
9.69898e-05
2.19914e-06
9.72702e-05
1.83739e-06
9.75247e-05
1.49438e-06
9.77606e-05
1.17396e-06
9.7983e-05
8.7623e-07
9.81956e-05
5.99197e-07
9.84008e-05
3.40142e-07
9.86005e-05
9.61942e-08
9.87958e-05
-1.3547e-07
9.89878e-05
-3.57515e-07
9.91769e-05
-5.72394e-07
9.93635e-05
-7.82346e-07
9.95478e-05
-9.89393e-07
9.97295e-05
-1.19535e-06
9.99084e-05
-1.40181e-06
0.000100084
-1.61014e-06
0.000100255
-1.82146e-06
0.000100421
-2.03658e-06
0.00010058
-2.25598e-06
0.000100731
-2.47971e-06
0.00010087
-2.70725e-06
0.000100997
-2.93742e-06
0.000101107
-3.16825e-06
0.0001012
-3.3968e-06
0.000101273
-3.61946e-06
-3.83124e-06
0.000101327
9.62154e-05
7.01599e-07
9.6673e-05
1.90497e-06
9.72149e-05
2.57162e-06
9.77372e-05
2.77713e-06
9.82098e-05
2.71744e-06
9.86244e-05
2.50435e-06
9.89853e-05
2.20819e-06
9.93031e-05
1.8813e-06
9.95882e-05
1.5523e-06
9.98486e-05
1.23394e-06
0.000100091
9.31895e-07
0.000100319
6.47895e-07
0.000100537
3.8127e-07
0.000100747
1.30244e-07
0.00010095
-1.0738e-07
0.000101149
-3.33924e-07
0.000101343
-5.51678e-07
0.000101533
-7.62802e-07
0.00010172
-9.69292e-07
0.000101904
-1.17295e-06
0.000102084
-1.37537e-06
0.00010226
-1.57795e-06
0.000102432
-1.78182e-06
0.000102598
-1.98785e-06
0.000102758
-2.19661e-06
0.000102911
-2.40834e-06
0.000103054
-2.62282e-06
0.000103186
-2.83939e-06
0.000103305
-3.05677e-06
0.00010341
-3.27311e-06
0.000103499
-3.48587e-06
0.000103572
-3.69211e-06
-3.88803e-06
0.000103629
9.8921e-05
5.5636e-07
9.92974e-05
1.52857e-06
9.97656e-05
2.10336e-06
0.000100236
2.30685e-06
0.000100676
2.27767e-06
0.000101073
2.10696e-06
0.000101427
1.85379e-06
0.000101745
1.56358e-06
0.000102034
1.26387e-06
0.000102299
9.68467e-07
0.000102547
6.8422e-07
0.000102781
4.14027e-07
0.000103004
1.58248e-07
0.000103218
-8.41021e-08
0.000103425
-3.14625e-07
0.000103627
-5.35191e-07
0.000103823
-7.4774e-07
0.000104014
-9.54153e-07
0.000104201
-1.15619e-06
0.000104383
-1.35543e-06
0.000104561
-1.55328e-06
0.000104734
-1.75092e-06
0.000104902
-1.94929e-06
0.000105063
-2.14907e-06
0.000105217
-2.35062e-06
0.000105363
-2.554e-06
0.000105499
-2.75886e-06
0.000105624
-2.96446e-06
0.000105736
-3.16957e-06
0.000105836
-3.37255e-06
0.000105921
-3.57129e-06
0.000105993
-3.76352e-06
-3.94637e-06
0.000106051
0.000101715
4.38955e-07
0.000102028
1.21566e-06
0.000102434
1.69712e-06
0.000102858
1.88292e-06
0.000103267
1.8688e-06
0.000103647
1.72719e-06
0.000103994
1.50716e-06
0.00010431
1.24743e-06
0.0001046
9.73411e-07
0.00010487
6.99031e-07
0.000105122
4.31764e-07
0.000105361
1.75251e-07
0.000105588
-6.93933e-08
0.000105807
-3.02517e-07
0.000106017
-5.25222e-07
0.000106221
-7.38985e-07
0.000106419
-9.45428e-07
0.000106611
-1.14617e-06
0.000106798
-1.34276e-06
0.000106979
-1.53657e-06
0.000107154
-1.72881e-06
0.000107324
-1.9205e-06
0.000107487
-2.1124e-06
0.000107643
-2.30503e-06
0.000107791
-2.49861e-06
0.00010793
-2.69308e-06
0.000108059
-2.88803e-06
0.000108177
-3.08271e-06
0.000108284
-3.27604e-06
0.000108378
-3.46661e-06
0.000108459
-3.65273e-06
0.000108528
-3.83272e-06
-4.00443e-06
0.000108587
0.000104597
3.42184e-07
0.00010486
9.52399e-07
0.000105215
1.34267e-06
0.000105598
1.49981e-06
0.000105978
1.48845e-06
0.000106341
1.36484e-06
0.000106679
1.16921e-06
0.000106992
9.34035e-07
0.000107283
6.82012e-07
0.000107556
4.26539e-07
0.000107812
1.75219e-07
0.000108056
-6.79161e-08
0.000108288
-3.01252e-07
0.00010851
-5.24667e-07
0.000108723
-7.38869e-07
0.000108929
-9.45009e-07
0.000109128
-1.14444e-06
0.000109321
-1.33855e-06
0.000109507
-1.52867e-06
0.000109686
-1.71602e-06
0.000109859
-1.90165e-06
0.000110025
-2.0864e-06
0.000110183
-2.27091e-06
0.000110334
-2.45556e-06
0.000110476
-2.64049e-06
0.000110608
-2.82555e-06
0.000110731
-3.01035e-06
0.000110842
-3.19418e-06
0.000110942
-3.37611e-06
0.00011103
-3.55501e-06
0.000111107
-3.72954e-06
0.000111173
-3.89852e-06
-4.06036e-06
0.000111229
0.000107567
2.6092e-07
0.000107792
7.27986e-07
0.000108103
1.03111e-06
0.000108451
1.15221e-06
0.000108805
1.13397e-06
0.000109151
1.01915e-06
0.00010948
8.40232e-07
0.00010979
6.24107e-07
0.000110081
3.90486e-07
0.000110356
1.51743e-07
0.000110616
-8.47692e-08
0.000110863
-3.14935e-07
0.000111099
-5.36874e-07
0.000111324
-7.5016e-07
0.000111541
-9.55216e-07
0.000111749
-1.15294e-06
0.000111949
-1.34446e-06
0.000112141
-1.53097e-06
0.000112326
-1.71365e-06
0.000112504
-1.89354e-06
0.000112673
-2.07156e-06
0.000112836
-2.24842e-06
0.000112989
-2.42466e-06
0.000113134
-2.60056e-06
0.00011327
-2.7762e-06
0.000113396
-2.95141e-06
0.000113511
-3.12581e-06
0.000113616
-3.2988e-06
0.000113709
-3.4696e-06
0.000113792
-3.63731e-06
0.000113863
-3.80093e-06
0.000113924
-3.95964e-06
-4.11225e-06
0.000113976
0.000110626
1.91432e-07
0.00011082
5.33966e-07
0.000111097
7.54748e-07
0.000111414
8.35059e-07
0.000111745
8.02478e-07
0.000112076
6.88872e-07
0.000112396
5.20079e-07
0.000112702
3.18005e-07
0.000112993
9.93706e-08
0.00011327
-1.24798e-07
0.000113532
-3.47695e-07
0.000113783
-5.65373e-07
0.000114022
-7.75896e-07
0.00011425
-9.78682e-07
0.000114469
-1.17398e-06
0.000114679
-1.3625e-06
0.00011488
-1.54522e-06
0.000115072
-1.72319e-06
0.000115256
-1.89742e-06
0.000115431
-2.06886e-06
0.000115598
-2.2383e-06
0.000115756
-2.40635e-06
0.000115904
-2.57347e-06
0.000116044
-2.73987e-06
0.000116173
-2.90561e-06
0.000116292
-3.07053e-06
0.000116401
-3.23427e-06
0.000116498
-3.39635e-06
0.000116585
-3.55612e-06
0.00011666
-3.71292e-06
0.000116725
-3.86598e-06
0.000116781
-4.01478e-06
-4.1584e-06
0.000116827
0.000113776
1.30936e-07
0.000113946
3.63661e-07
0.000114194
5.06941e-07
0.000114486
5.43571e-07
0.000114797
4.90956e-07
0.000115114
3.72407e-07
0.000115426
2.08119e-07
0.000115728
1.5649e-08
0.000116018
-1.91156e-07
0.000116296
-4.02804e-07
0.000116562
-6.13262e-07
0.000116816
-8.1895e-07
0.000117058
-1.01806e-06
0.000117289
-1.20999e-06
0.00011751
-1.39492e-06
0.000117721
-1.57348e-06
0.000117922
-1.74651e-06
0.000118114
-1.91497e-06
0.000118296
-2.07978e-06
0.000118469
-2.24178e-06
0.000118633
-2.40167e-06
0.000118786
-2.56001e-06
0.00011893
-2.71718e-06
0.000119064
-2.87336e-06
0.000119187
-3.0286e-06
0.000119299
-3.18275e-06
0.0001194
-3.33553e-06
0.00011949
-3.48652e-06
0.000119569
-3.63524e-06
0.000119638
-3.78117e-06
0.000119695
-3.92377e-06
0.000119743
-4.06267e-06
-4.19719e-06
0.000119782
0.000117018
7.73031e-08
0.00011717
2.11726e-07
0.000117395
2.81957e-07
0.000117665
2.73234e-07
0.00011796
1.96267e-07
0.000118265
6.77959e-08
0.000118569
-9.67039e-08
0.000118868
-2.83434e-07
0.000119159
-4.81244e-07
0.000119438
-6.82253e-07
0.000119706
-8.81361e-07
0.000119963
-1.07552e-06
0.000120208
-1.2632e-06
0.000120442
-1.44392e-06
0.000120665
-1.61788e-06
0.000120877
-1.78568e-06
0.000121079
-1.94814e-06
0.00012127
-2.10613e-06
0.00012145
-2.26053e-06
0.000121621
-2.41211e-06
0.000121781
-2.56151e-06
0.00012193
-2.70923e-06
0.000122068
-2.85562e-06
0.000122196
-3.00087e-06
0.000122312
-3.14499e-06
0.000122417
-3.28788e-06
0.000122511
-3.42932e-06
0.000122594
-3.56897e-06
0.000122665
-3.70646e-06
0.000122725
-3.8414e-06
0.000122775
-3.97339e-06
0.000122814
-4.10222e-06
-4.2273e-06
0.000122844
0.000120354
2.88551e-08
0.000120492
7.38067e-08
0.0001207
7.47866e-08
0.000120953
1.97736e-08
0.000121234
-8.48275e-08
0.000121529
-2.27232e-07
0.000121828
-3.95863e-07
0.000122125
-5.80164e-07
0.000122415
-7.71455e-07
0.000122696
-9.63491e-07
0.000122967
-1.15221e-06
0.000123227
-1.33523e-06
0.000123475
-1.51142e-06
0.000123712
-1.68052e-06
0.000123937
-1.84286e-06
0.00012415
-1.99909e-06
0.000124352
-2.15004e-06
0.000124543
-2.29659e-06
0.000124722
-2.43957e-06
0.000124889
-2.57973e-06
0.000125045
-2.71767e-06
0.00012519
-2.85387e-06
0.000125323
-2.98867e-06
0.000125444
-3.12223e-06
0.000125554
-3.2546e-06
0.000125652
-3.38569e-06
0.000125738
-3.51534e-06
0.000125812
-3.6433e-06
0.000125875
-3.76926e-06
0.000125927
-3.89294e-06
0.000125967
-4.01403e-06
0.000125997
-4.1324e-06
-4.24753e-06
0.000126018
0.000123788
-1.57833e-08
0.000123915
-5.37453e-08
0.000124109
-1.19022e-07
0.00012435
-2.20905e-07
0.000124621
-3.55674e-07
0.000124909
-5.15236e-07
0.000125204
-6.91215e-07
0.0001255
-8.75843e-07
0.000125791
-1.06269e-06
0.000126075
-1.24714e-06
0.000126349
-1.42624e-06
0.000126612
-1.59836e-06
0.000126863
-1.76288e-06
0.000127103
-1.91988e-06
0.00012733
-2.06989e-06
0.000127544
-2.21369e-06
0.000127746
-2.35219e-06
0.000127936
-2.48628e-06
0.000128113
-2.61681e-06
0.000128278
-2.74453e-06
0.000128431
-2.87005e-06
0.00012857
-2.99382e-06
0.000128698
-3.11618e-06
0.000128813
-3.2373e-06
0.000128916
-3.35724e-06
0.000129006
-3.47597e-06
0.000129084
-3.59333e-06
0.00012915
-3.70915e-06
0.000129204
-3.82319e-06
0.000129246
-3.93523e-06
0.000129277
-4.04501e-06
0.000129297
-4.15247e-06
-4.2571e-06
0.000129307
0.000127321
-5.77803e-08
0.000127441
-1.74091e-07
0.000127625
-3.03539e-07
0.000127857
-4.52812e-07
0.000128121
-6.19802e-07
0.000128405
-7.99151e-07
0.000128699
-9.85105e-07
0.000128996
-1.17232e-06
0.000129289
-1.35642e-06
0.000129577
-1.53437e-06
0.000129855
-1.70437e-06
0.000130122
-1.86566e-06
0.000130377
-2.0182e-06
0.00013062
-2.16249e-06
0.000130849
-2.29936e-06
0.000131066
-2.42977e-06
0.000131268
-2.55476e-06
0.000131457
-2.67531e-06
0.000131633
-2.79232e-06
0.000131795
-2.90654e-06
0.000131943
-3.01861e-06
0.000132078
-3.12899e-06
0.0001322
-3.23803e-06
0.000132309
-3.34592e-06
0.000132404
-3.45273e-06
0.000132487
-3.55844e-06
0.000132556
-3.66297e-06
0.000132613
-3.76614e-06
0.000132658
-3.86779e-06
0.000132691
-3.96771e-06
0.000132711
-4.0657e-06
0.00013272
-4.16169e-06
-4.25519e-06
0.000132719
0.000130955
-9.81677e-08
0.000131071
-2.90093e-07
0.00013125
-4.82611e-07
0.000131477
-6.79952e-07
0.000131739
-8.80919e-07
0.000132022
-1.0822e-06
0.000132317
-1.28021e-06
0.000132616
-1.47174e-06
0.000132914
-1.65434e-06
0.000133206
-1.8265e-06
0.00013349
-1.98765e-06
0.000133762
-2.13793e-06
0.000134022
-2.27798e-06
0.000134268
-2.40881e-06
0.0001345
-2.5316e-06
0.000134718
-2.64757e-06
0.000134921
-2.75794e-06
0.00013511
-2.86381e-06
0.000135283
-2.96615e-06
0.000135443
-3.06578e-06
0.000135587
-3.16335e-06
0.000135718
-3.25938e-06
0.000135834
-3.35419e-06
0.000135936
-3.44802e-06
0.000136024
-3.54095e-06
0.000136099
-3.63299e-06
0.00013616
-3.72407e-06
0.000136208
-3.81405e-06
0.000136243
-3.90279e-06
0.000136265
-3.9901e-06
0.000136275
-4.07579e-06
0.000136273
-4.15979e-06
-4.24164e-06
0.00013626
0.000134695
-1.37935e-07
0.000134809
-4.04506e-07
0.000134987
-6.60086e-07
0.000135213
-9.06558e-07
0.000135476
-1.1432e-06
0.000135762
-1.36826e-06
0.000136062
-1.58002e-06
0.000136367
-1.77719e-06
0.000136672
-1.95911e-06
0.000136971
-2.12583e-06
0.000137261
-2.27801e-06
0.00013754
-2.41677e-06
0.000137806
-2.54354e-06
0.000138057
-2.6599e-06
0.000138293
-2.76745e-06
0.000138513
-2.86775e-06
0.000138717
-2.96221e-06
0.000138906
-3.05211e-06
0.000139078
-3.13853e-06
0.000139234
-3.22237e-06
0.000139375
-3.30432e-06
0.000139501
-3.38492e-06
0.000139611
-3.46456e-06
0.000139707
-3.54345e-06
0.000139788
-3.62171e-06
0.000139854
-3.69936e-06
0.000139906
-3.77634e-06
0.000139945
-3.85254e-06
0.00013997
-3.92781e-06
0.000139982
-4.00197e-06
0.000139981
-4.07482e-06
0.000139967
-4.14627e-06
-4.21583e-06
0.000139941
0.000138542
-1.78067e-07
0.000138658
-5.20091e-07
0.000138838
-8.39886e-07
0.000139068
-1.13702e-06
0.000139336
-1.41101e-06
0.000139629
-1.66138e-06
0.000139937
-1.8881e-06
0.000140252
-2.09169e-06
0.000140566
-2.27326e-06
0.000140874
-2.43443e-06
0.000141174
-2.57715e-06
0.00014146
-2.70361e-06
0.000141733
-2.81606e-06
0.00014199
-2.91673e-06
0.00014223
-3.00771e-06
0.000142453
-3.09094e-06
0.000142659
-3.1681e-06
0.000142848
-3.24065e-06
0.000143019
-3.30982e-06
0.000143173
-3.37659e-06
0.000143311
-3.44174e-06
0.000143432
-3.50583e-06
0.000143536
-3.56927e-06
0.000143625
-3.63231e-06
0.000143698
-3.69508e-06
0.000143757
-3.7576e-06
0.0001438
-3.81981e-06
0.000143829
-3.88162e-06
0.000143844
-3.94285e-06
0.000143846
-4.00334e-06
0.000143834
-4.06288e-06
0.000143809
-4.12136e-06
-4.17828e-06
0.000143771
0.000142501
-2.19658e-07
0.000142621
-6.39946e-07
0.000142807
-1.02656e-06
0.000143047
-1.37673e-06
0.000143326
-1.69006e-06
0.000143632
-1.96726e-06
0.000143954
-2.20986e-06
0.000144282
-2.42022e-06
0.00014461
-2.60124e-06
0.000144932
-2.75616e-06
0.000145243
-2.88834e-06
0.000145541
-3.00112e-06
0.000145822
-3.09768e-06
0.000146087
-3.18099e-06
0.000146333
-3.25369e-06
0.00014656
-3.31812e-06
0.000146768
-3.37629e-06
0.000146957
-3.42989e-06
0.000147128
-3.48029e-06
0.00014728
-3.52859e-06
0.000147414
-3.57562e-06
0.00014753
-3.62201e-06
0.000147629
-3.66818e-06
0.000147711
-3.7144e-06
0.000147776
-3.7608e-06
0.000147826
-3.80741e-06
0.000147861
-3.85417e-06
0.00014788
-3.90095e-06
0.000147885
-3.94759e-06
0.000147875
-3.99389e-06
0.000147852
-4.03962e-06
0.000147815
-4.0846e-06
-4.12834e-06
0.000147765
0.000146574
-2.63872e-07
0.000146701
-7.67359e-07
0.000146899
-1.2248e-06
0.000147153
-1.63092e-06
0.000147449
-1.9856e-06
0.000147772
-2.2908e-06
0.000148112
-2.54975e-06
0.000148459
-2.7667e-06
0.000148804
-2.94649e-06
0.000149142
-3.09406e-06
0.000149468
-3.21428e-06
0.000149779
-3.3117e-06
0.000150071
-3.39055e-06
0.000150345
-3.45455e-06
0.000150598
-3.50701e-06
0.000150831
-3.55071e-06
0.000151043
-3.58803e-06
0.000151234
-3.62088e-06
0.000151404
-3.65084e-06
0.000151555
-3.67911e-06
0.000151686
-3.7066e-06
0.000151798
-3.734e-06
0.000151891
-3.76174e-06
0.000151967
-3.79011e-06
0.000152025
-3.81923e-06
0.000152067
-3.84912e-06
0.000152093
-3.8797e-06
0.000152102
-3.91084e-06
0.000152097
-3.94235e-06
0.000152077
-3.974e-06
0.000152043
-4.00555e-06
0.000151995
-4.03681e-06
-4.06726e-06
0.000151934
0.000150764
-3.1241e-07
0.000150904
-9.07115e-07
0.000151121
-1.44177e-06
0.000151398
-1.90834e-06
0.00015172
-2.30711e-06
0.000152071
-2.64154e-06
0.000152438
-2.91673e-06
0.00015281
-3.13917e-06
0.000153179
-3.31589e-06
0.000153539
-3.45382e-06
0.000153884
-3.55949e-06
0.000154212
-3.63887e-06
0.000154518
-3.69727e-06
0.000154803
-3.73933e-06
0.000155065
-3.769e-06
0.000155304
-3.78958e-06
0.00015552
-3.8038e-06
0.000155713
-3.81386e-06
0.000155883
-3.8215e-06
0.000156032
-3.82804e-06
0.00015616
-3.83448e-06
0.000156268
-3.84152e-06
0.000156356
-3.84963e-06
0.000156425
-3.85907e-06
0.000156475
-3.86997e-06
0.000156508
-3.88232e-06
0.000156525
-3.89602e-06
0.000156525
-3.9109e-06
0.000156509
-3.92674e-06
0.000156479
-3.94328e-06
0.000156433
-3.96021e-06
0.000156374
-3.9773e-06
-3.99397e-06
0.0001563
0.000155076
-3.66688e-07
0.000155232
-1.06337e-06
0.000155473
-1.68296e-06
0.00015578
-2.21473e-06
0.000156133
-2.66023e-06
0.000156516
-3.02495e-06
0.000156916
-3.31625e-06
0.00015732
-3.54307e-06
0.000157719
-3.71487e-06
0.000158106
-3.84075e-06
0.000158475
-3.92908e-06
0.000158824
-3.98738e-06
0.000159149
-4.02223e-06
0.000159449
-4.03923e-06
0.000159723
-4.04309e-06
0.000159971
-4.03769e-06
0.000160193
-4.02615e-06
0.00016039
-4.01097e-06
0.000160563
-3.99406e-06
0.000160712
-3.97688e-06
0.000160838
-3.96048e-06
0.000160942
-3.94559e-06
0.000161025
-3.93269e-06
0.000161088
-3.92202e-06
0.000161131
-3.91368e-06
0.000161157
-3.90762e-06
0.000161164
-3.9037e-06
0.000161155
-3.90172e-06
0.00016113
-3.90142e-06
0.000161089
-3.9025e-06
0.000161034
-3.90464e-06
0.000160964
-3.90756e-06
-3.9107e-06
0.000160881
0.000159515
-4.30886e-07
0.000159698
-1.24696e-06
0.00015998
-1.96408e-06
0.000160333
-2.56824e-06
0.000160736
-3.06331e-06
0.000161169
-3.45784e-06
0.000161615
-3.76244e-06
0.000162062
-3.98956e-06
0.000162499
-4.15181e-06
0.000162919
-4.26084e-06
0.000163317
-4.32711e-06
0.000163689
-4.35985e-06
0.000164034
-4.36694e-06
0.00016435
-4.35502e-06
0.000164636
-4.32954e-06
0.000164893
-4.29495e-06
0.000165122
-4.25477e-06
0.000165323
-4.21175e-06
0.000165497
-4.168e-06
0.000165645
-4.12506e-06
0.000165768
-4.08403e-06
0.000165869
-4.04566e-06
0.000165946
-4.01039e-06
0.000166003
-3.97844e-06
0.000166039
-3.94985e-06
0.000166056
-3.92454e-06
0.000166054
-3.90231e-06
0.000166036
-3.88289e-06
0.000166
-3.86597e-06
0.000165949
-3.8512e-06
0.000165882
-3.83818e-06
0.000165801
-3.82656e-06
-3.8157e-06
0.000165706
0.00016408
-5.04853e-07
0.000164293
-1.46013e-06
0.000164617
-2.28753e-06
0.00016502
-2.97182e-06
0.000165478
-3.52135e-06
0.000165968
-3.94795e-06
0.000166472
-4.26557e-06
0.000166973
-4.49064e-06
0.00016746
-4.63943e-06
0.000167926
-4.72668e-06
0.000168364
-4.76544e-06
0.000168772
-4.76698e-06
0.000169145
-4.7408e-06
0.000169485
-4.69472e-06
0.000169791
-4.63508e-06
0.000170063
-4.56693e-06
0.000170302
-4.49421e-06
0.00017051
-4.41993e-06
0.000170689
-4.34635e-06
0.000170839
-4.27507e-06
0.000170962
-4.20721e-06
0.00017106
-4.14346e-06
0.000171133
-4.08423e-06
0.000171185
-4.02966e-06
0.000171215
-3.97971e-06
0.000171224
-3.93422e-06
0.000171215
-3.89292e-06
0.000171187
-3.85548e-06
0.000171143
-3.82153e-06
0.000171082
-3.79067e-06
0.000171007
-3.76247e-06
0.000170917
-3.73657e-06
-3.71227e-06
0.000170813
0.000168793
-6.05665e-07
0.000169071
-1.73824e-06
0.00016948
-2.69657e-06
0.000169974
-3.46642e-06
0.00017052
-4.0672e-06
0.00017109
-4.51821e-06
0.000171665
-4.83965e-06
0.000172228
-5.05364e-06
0.000172769
-5.18066e-06
0.000173281
-5.23861e-06
0.000173758
-5.24304e-06
0.000174198
-5.20722e-06
0.0001746
-5.14215e-06
0.000174962
-5.05679e-06
0.000175285
-4.9583e-06
0.000175571
-4.85232e-06
0.00017582
-4.74319e-06
0.000176034
-4.63418e-06
0.000176215
-4.52765e-06
0.000176365
-4.42527e-06
0.000176486
-4.32814e-06
0.00017658
-4.2369e-06
0.000176647
-4.15186e-06
0.000176691
-4.07307e-06
0.000176711
-4.00039e-06
0.000176711
-3.93355e-06
0.00017669
-3.87219e-06
0.00017665
-3.8159e-06
0.000176593
-3.76421e-06
0.000176519
-3.71667e-06
0.000176429
-3.67275e-06
0.000176325
-3.63199e-06
-3.5936e-06
0.000176206
0.00017362
-7.14796e-07
0.000173944
-2.06189e-06
0.000174424
-3.17606e-06
0.000175009
-4.05181e-06
0.00017566
-4.71811e-06
0.00017634
-5.19852e-06
0.000177021
-5.52081e-06
0.000177683
-5.71563e-06
0.000178313
-5.80986e-06
0.0001789
-5.82612e-06
0.000179441
-5.78367e-06
0.000179932
-5.6985e-06
0.000180373
-5.58351e-06
0.000180766
-5.449e-06
0.00018111
-5.30303e-06
0.00018141
-5.15177e-06
0.000181666
-4.9999e-06
0.000181883
-4.85081e-06
0.000182062
-4.7069e-06
0.000182207
-4.56976e-06
0.000182319
-4.44037e-06
0.000182401
-4.31921e-06
0.000182456
-4.20642e-06
0.000182485
-4.10189e-06
0.00018249
-4.0053e-06
0.000182472
-3.91623e-06
0.000182434
-3.83418e-06
0.000182377
-3.75865e-06
0.000182302
-3.68909e-06
0.00018221
-3.625e-06
0.000182103
-3.56584e-06
0.000181983
-3.51119e-06
-3.46012e-06
0.000181849
0.000178679
-9.25306e-07
0.000179178
-2.56117e-06
0.000179837
-3.83453e-06
0.000180575
-4.79039e-06
0.000181353
-5.49546e-06
0.000182137
-5.98245e-06
0.000182903
-6.2875e-06
0.000183636
-6.44869e-06
0.000184324
-6.49767e-06
0.000184959
-6.46108e-06
0.000185537
-6.36169e-06
0.000186057
-6.21819e-06
0.000186519
-6.04545e-06
0.000186925
-5.85515e-06
0.000187278
-5.65627e-06
0.000187582
-5.45551e-06
0.00018784
-5.25777e-06
0.000188055
-5.06648e-06
0.000188232
-4.88393e-06
0.000188374
-4.71152e-06
0.000188484
-4.54997e-06
0.000188564
-4.39951e-06
0.000188618
-4.25998e-06
0.000188647
-4.13099e-06
0.000188653
-4.01198e-06
0.00018864
-3.90228e-06
0.000188607
-3.80122e-06
0.000188556
-3.70812e-06
0.000188489
-3.62236e-06
0.000188408
-3.54333e-06
0.000188312
-3.47053e-06
0.000188205
-3.40351e-06
-3.34132e-06
0.000188086
0.000183742
-1.1004e-06
0.000184324
-3.14298e-06
0.000185141
-4.65149e-06
0.00018609
-5.73945e-06
0.00018709
-6.49489e-06
0.000188077
-6.96931e-06
0.000189018
-7.22861e-06
0.000189899
-7.32988e-06
0.000190715
-7.3137e-06
0.000191466
-7.21185e-06
0.000192154
-7.04992e-06
0.000192783
-6.84766e-06
0.000193358
-6.62016e-06
0.000193882
-6.37895e-06
0.000194358
-6.13268e-06
0.000194791
-5.88774e-06
0.000195182
-5.64873e-06
0.000195534
-5.41889e-06
0.00019585
-5.2003e-06
0.000196133
-4.9942e-06
0.000196384
-4.80114e-06
0.000196606
-4.62121e-06
0.0001968
-4.45407e-06
0.000196968
-4.29918e-06
0.000197112
-4.1558e-06
0.000197233
-4.02311e-06
0.000197332
-3.90031e-06
0.00019741
-3.78662e-06
0.000197469
-3.6814e-06
0.00019751
-3.5841e-06
0.000197534
-3.49464e-06
0.000197543
-3.41265e-06
-3.33862e-06
0.000197541
0.000189414
-1.70218e-06