/*--------------------------------*- C++ -*----------------------------------*\
| =========                 |                                                 |
| \\      /  F ield         | OpenFOAM: The Open Source CFD Toolbox           |
|  \\    /   O peration     | Version:  2.1.1                                 |
|   \\  /    A nd           | Web:      www.OpenFOAM.org                      |
|    \\/     M anipulation  |                                                 |
\*---------------------------------------------------------------------------*/
FoamFile
{
    version     2.0;
    format      ascii;
    class       volVectorField;
    location    "0.175";
    object      U;
}
// * * * * * * * * * * * * * * * * * * * * * * * * * * * * * * * * * * * * * //

dimensions      [0 1 -1 0 0 0 0];

internalField   nonuniform List<vector> 
6820
(
(6.37629 0.503629 0)
(4.42576 0.28669 0)
(2.97708 0.0199793 0)
(2.24041 -0.062221 0)
(1.9777 -0.0603855 0)
(1.85431 -0.0350133 0)
(1.78326 -0.0155969 0)
(1.73544 -0.0052066 0)
(1.69682 -0.000504153 0)
(1.6644 0.000986198 0)
(1.63765 0.000931313 0)
(1.61614 0.000267636 0)
(1.59945 -0.000573103 0)
(1.58712 -0.00140345 0)
(1.57871 -0.00214321 0)
(1.57386 -0.00277551 0)
(1.57243 -0.00322018 0)
(1.57411 -0.00391369 0)
(1.57879 -0.00447241 0)
(1.5865 -0.00494083 0)
(1.59725 -0.00536052 0)
(1.61114 -0.00581334 0)
(1.62839 -0.00635283 0)
(1.64929 -0.00698712 0)
(1.67416 -0.00773501 0)
(1.70348 -0.00862239 0)
(1.73781 -0.00971619 0)
(1.7782 -0.0110456 0)
(1.82506 -0.0129163 0)
(1.88238 -0.0149492 0)
(1.94522 -0.0197792 0)
(2.0407 -0.0193774 0)
(2.10107 -0.0654783 0)
(8.72024 0.959222 0)
(8.76602 1.01098 0)
(7.97305 0.677659 0)
(7.06379 0.392252 0)
(6.3678 0.2005 0)
(5.8672 0.101038 0)
(5.51174 0.0551657 0)
(5.2576 0.0342441 0)
(5.06987 0.0245849 0)
(4.92642 0.0195474 0)
(4.8139 0.0162738 0)
(4.72403 0.0137013 0)
(4.65149 0.0114257 0)
(4.59279 0.0092732 0)
(4.54555 0.00715648 0)
(4.50809 0.00500425 0)
(4.47915 0.0028197 0)
(4.45785 0.000438685 0)
(4.44368 -0.00204452 0)
(4.43624 -0.00474179 0)
(4.43524 -0.00769836 0)
(4.44053 -0.0109076 0)
(4.45214 -0.0144614 0)
(4.4702 -0.0184253 0)
(4.49498 -0.0229348 0)
(4.52688 -0.0281442 0)
(4.56649 -0.0342906 0)
(4.61471 -0.0415831 0)
(4.67254 -0.0507606 0)
(4.74214 -0.0617555 0)
(4.82456 -0.0783743 0)
(4.92787 -0.0976421 0)
(5.0485 -0.137871 0)
(8.5861 0.582928 0)
(9.33158 0.760672 0)
(9.6162 0.657372 0)
(9.50922 0.522844 0)
(9.2476 0.392557 0)
(8.94107 0.294035 0)
(8.6423 0.224565 0)
(8.37433 0.174481 0)
(8.14133 0.137769 0)
(7.94101 0.110228 0)
(7.76966 0.0889312 0)
(7.62349 0.0720017 0)
(7.49906 0.0581995 0)
(7.39343 0.04667 0)
(7.30417 0.0367995 0)
(7.22926 0.0281181 0)
(7.16706 0.0202509 0)
(7.11626 0.0129792 0)
(7.0758 0.00602353 0)
(7.04481 -0.000851934 0)
(7.02259 -0.00785325 0)
(7.00894 -0.0150838 0)
(7.0037 -0.0228046 0)
(7.0067 -0.0311073 0)
(7.01789 -0.0401916 0)
(7.0374 -0.0503306 0)
(7.06552 -0.0618979 0)
(7.10276 -0.0753463 0)
(7.14974 -0.091508 0)
(7.20755 -0.11112 0)
(7.27691 -0.137015 0)
(7.35864 -0.170066 0)
(7.45125 -0.220942 0)
(8.44098 0.379137 0)
(8.94615 0.582314 0)
(9.35899 0.551498 0)
(9.5875 0.482587 0)
(9.70318 0.401253 0)
(9.74184 0.330735 0)
(9.73017 0.276902 0)
(9.69053 0.235403 0)
(9.6358 0.20256 0)
(9.57325 0.17575 0)
(9.50759 0.153089 0)
(9.4419 0.13341 0)
(9.37821 0.115976 0)
(9.31795 0.100255 0)
(9.26211 0.0858578 0)
(9.2113 0.0724878 0)
(9.16591 0.0599029 0)
(9.12613 0.04788 0)
(9.09212 0.0361793 0)
(9.06391 0.0246302 0)
(9.04162 0.013016 0)
(9.02506 0.00103764 0)
(9.01411 -0.011418 0)
(9.00892 -0.0246507 0)
(9.00959 -0.0389307 0)
(9.01633 -0.0545829 0)
(9.02936 -0.072052 0)
(9.04894 -0.091889 0)
(9.07528 -0.114954 0)
(9.10857 -0.142164 0)
(9.14856 -0.175516 0)
(9.19393 -0.216253 0)
(9.24285 -0.267479 0)
(8.40218 0.279427 0)
(8.71936 0.478774 0)
(8.99983 0.458658 0)
(9.17594 0.399732 0)
(9.30111 0.336212 0)
(9.39536 0.282202 0)
(9.46556 0.241544 0)
(9.51999 0.210234 0)
(9.56359 0.184936 0)
(9.5988 0.163728 0)
(9.62742 0.145324 0)
(9.6509 0.128903 0)
(9.6704 0.113947 0)
(9.68674 0.100079 0)
(9.70058 0.0870031 0)
(9.71261 0.07447 0)
(9.72343 0.0622692 0)
(9.73357 0.0502195 0)
(9.74351 0.0381428 0)
(9.75365 0.0258703 0)
(9.76433 0.0132471 0)
(9.77575 9.35307e-05 0)
(9.78798 -0.0136546 0)
(9.80115 -0.0283485 0)
(9.81546 -0.0443044 0)
(9.83104 -0.0618634 0)
(9.84797 -0.0814584 0)
(9.86626 -0.103616 0)
(9.88576 -0.129062 0)
(9.90608 -0.158593 0)
(9.92637 -0.193441 0)
(9.94471 -0.234406 0)
(9.95895 -0.282204 0)
(8.37751 0.201458 0)
(8.60175 0.381412 0)
(8.81695 0.387043 0)
(8.94901 0.351192 0)
(9.03609 0.305342 0)
(9.10024 0.260283 0)
(9.14869 0.222776 0)
(9.18871 0.192479 0)
(9.22453 0.167577 0)
(9.25756 0.146709 0)
(9.28843 0.128758 0)
(9.31753 0.112865 0)
(9.34506 0.0984446 0)
(9.37127 0.0850941 0)
(9.39634 0.0724954 0)
(9.42041 0.0603793 0)
(9.44357 0.0485234 0)
(9.46592 0.0367385 0)
(9.48756 0.0248444 0)
(9.50857 0.0126757 0)
(9.52901 8.74509e-05 0)
(9.54909 -0.0130384 0)
(9.5691 -0.0269774 0)
(9.58912 -0.0419316 0)
(9.60917 -0.0581707 0)
(9.62926 -0.0760087 0)
(9.64927 -0.0958231 0)
(9.66901 -0.118056 0)
(9.68813 -0.14326 0)
(9.70601 -0.172008 0)
(9.7217 -0.204957 0)
(9.73344 -0.242458 0)
(9.73966 -0.284149 0)
(8.36131 0.148007 0)
(8.5231 0.308969 0)
(8.69858 0.332992 0)
(8.81446 0.311815 0)
(8.89051 0.276921 0)
(8.94537 0.239018 0)
(8.98521 0.205583 0)
(9.0162 0.177802 0)
(9.04277 0.154489 0)
(9.06682 0.134575 0)
(9.08932 0.117189 0)
(9.11085 0.101642 0)
(9.13177 0.0874348 0)
(9.15224 0.0741965 0)
(9.1724 0.0616382 0)
(9.19234 0.0495252 0)
(9.2121 0.0376565 0)
(9.23175 0.0258515 0)
(9.25132 0.0139363 0)
(9.27085 0.00174504 0)
(9.29039 -0.0108951 0)
(9.31002 -0.024197 0)
(9.32972 -0.0383841 0)
(9.34948 -0.0536242 0)
(9.36929 -0.0701461 0)
(9.38908 -0.0882234 0)
(9.40871 -0.10817 0)
(9.42792 -0.130335 0)
(9.44635 -0.155105 0)
(9.46337 -0.182841 0)
(9.47816 -0.213829 0)
(9.48934 -0.248101 0)
(9.49583 -0.284971 0)
(8.35119 0.11049 0)
(8.46777 0.248903 0)
(8.60927 0.281987 0)
(8.71207 0.271996 0)
(8.78331 0.247828 0)
(8.8367 0.2185 0)
(8.87662 0.190423 0)
(8.9076 0.165685 0)
(8.9336 0.143996 0)
(8.95664 0.124853 0)
(8.97778 0.107772 0)
(8.99774 0.0922842 0)
(9.01696 0.0779945 0)
(9.03572 0.0645914 0)
(9.05419 0.0518186 0)
(9.0725 0.0394536 0)
(9.09075 0.0272972 0)
(9.10901 0.0151684 0)
(9.12734 0.00289231 0)
(9.14577 -0.00970371 0)
(9.16431 -0.0227932 0)
(9.18297 -0.0365461 0)
(9.20174 -0.0511404 0)
(9.22058 -0.0667505 0)
(9.23943 -0.0835868 0)
(9.2582 -0.101886 0)
(9.27671 -0.121904 0)
(9.2947 -0.143902 0)
(9.31179 -0.168133 0)
(9.32742 -0.194792 0)
(9.34091 -0.223929 0)
(9.35121 -0.255372 0)
(9.35761 -0.288348 0)
(8.3449 0.0837293 0)
(8.42973 0.200763 0)
(8.54323 0.238774 0)
(8.63301 0.237518 0)
(8.69836 0.221358 0)
(8.74915 0.198304 0)
(8.78861 0.174187 0)
(8.81997 0.151829 0)
(8.84651 0.131642 0)
(8.87005 0.113454 0)
(8.89159 0.0969808 0)
(8.91179 0.0818714 0)
(8.93113 0.0678006 0)
(8.94987 0.0544969 0)
(8.96823 0.0417291 0)
(8.98635 0.0292928 0)
(9.00432 0.0170052 0)
(9.02222 0.00469751 0)
(9.04012 -0.00779083 0)
(9.05803 -0.0206162 0)
(9.07599 -0.0339349 0)
(9.09398 -0.0479104 0)
(9.11199 -0.0627172 0)
(9.12997 -0.0785278 0)
(9.14784 -0.0955247 0)
(9.16548 -0.113901 0)
(9.18272 -0.133849 0)
(9.1993 -0.155549 0)
(9.21486 -0.179141 0)
(9.22893 -0.204686 0)
(9.24096 -0.232093 0)
(9.25018 -0.261074 0)
(9.25619 -0.290891 0)
(8.34097 0.0643996 0)
(8.40342 0.162172 0)
(8.49428 0.201244 0)
(8.57198 0.205689 0)
(8.63142 0.195378 0)
(8.67918 0.177609 0)
(8.7176 0.157421 0)
(8.74884 0.137722 0)
(8.77549 0.119296 0)
(8.79919 0.102222 0)
(8.82086 0.0864078 0)
(8.84114 0.0716599 0)
(8.86049 0.0577531 0)
(8.87919 0.0444785 0)
(8.89745 0.0316456 0)
(8.9154 0.0190778 0)
(8.93314 0.00660968 0)
(8.95074 -0.00591623 0)
(8.96826 -0.0186502 0)
(8.98573 -0.0317406 0)
(9.00315 -0.0453382 0)
(9.02052 -0.0595954 0)
(9.0378 -0.074665 0)
(9.05495 -0.0906952 0)
(9.07188 -0.107836 0)
(9.08845 -0.126236 0)
(9.10451 -0.146034 0)
(9.11979 -0.167343 0)
(9.134 -0.190222 0)
(9.14674 -0.214647 0)
(9.1576 -0.24045 0)
(9.16605 -0.267306 0)
(9.17188 -0.294562 0)
(8.33848 0.0501588 0)
(8.38505 0.131102 0)
(8.45787 0.168841 0)
(8.52478 0.177073 0)
(8.57857 0.17127 0)
(8.62317 0.157817 0)
(8.66017 0.140948 0)
(8.69094 0.12349 0)
(8.71748 0.106534 0)
(8.7412 0.0904059 0)
(8.76294 0.0751855 0)
(8.78327 0.0607996 0)
(8.80262 0.0471005 0)
(8.82128 0.033925 0)
(8.83943 0.021112 0)
(8.85721 0.00850428 0)
(8.87473 -0.00404973 0)
(8.89204 -0.0166948 0)
(8.90919 -0.0295726 0)
(8.9262 -0.0428211 0)
(8.94309 -0.0565773 0)
(8.95984 -0.0709769 0)
(8.97641 -0.086154 0)
(8.99274 -0.102239 0)
(9.00874 -0.119355 0)
(9.02428 -0.13762 0)
(9.0392 -0.157127 0)
(9.05329 -0.177936 0)
(9.0663 -0.200048 0)
(9.0779 -0.223386 0)
(9.08783 -0.247748 0)
(9.09571 -0.272815 0)
(9.10148 -0.298035 0)
(8.33689 0.0394531 0)
(8.37212 0.106019 0)
(8.43065 0.140928 0)
(8.48802 0.151247 0)
(8.53643 0.148562 0)
(8.57784 0.13837 0)
(8.6132 0.124259 0)
(8.64332 0.108843 0)
(8.66965 0.0933501 0)
(8.69333 0.0782493 0)
(8.71508 0.0637221 0)
(8.73544 0.0497842 0)
(8.75478 0.036356 0)
(8.77338 0.0233221 0)
(8.79142 0.0105554 0)
(8.80902 -0.00207567 0)
(8.82629 -0.0147035 0)
(8.84329 -0.0274579 0)
(8.86005 -0.0404669 0)
(8.8766 -0.053856 0)
(8.89293 -0.0677493 0)
(8.90904 -0.0822682 0)
(8.92487 -0.0975297 0)
(8.94037 -0.113643 0)
(8.95545 -0.130707 0)
(8.96999 -0.148804 0)
(8.98385 -0.16799 0)
(8.99684 -0.188286 0)
(9.00877 -0.209656 0)
(9.0194 -0.231996 0)
(9.02854 -0.255103 0)
(9.03597 -0.27869 0)
(9.04171 -0.302309 0)
(8.33586 0.0312327 0)
(8.36291 0.0856328 0)
(8.41017 0.116861 0)
(8.45927 0.127979 0)
(8.50267 0.127384 0)
(8.54095 0.119677 0)
(8.57453 0.107853 0)
(8.60379 0.0942172 0)
(8.62972 0.0800256 0)
(8.65323 0.0658438 0)
(8.67493 0.051941 0)
(8.69525 0.0384121 0)
(8.71455 0.0252406 0)
(8.73307 0.0123554 0)
(8.75098 -0.000339796 0)
(8.7684 -0.0129543 0)
(8.78542 -0.025603 0)
(8.8021 -0.0384028 0)
(8.81847 -0.0514698 0)
(8.83454 -0.0649184 0)
(8.85032 -0.0788599 0)
(8.86579 -0.0934012 0)
(8.88089 -0.108642 0)
(8.89558 -0.124673 0)
(8.90977 -0.14157 0)
(8.92335 -0.159391 0)
(8.93621 -0.178166 0)
(8.9482 -0.197892 0)
(8.95915 -0.218512 0)
(8.96892 -0.239914 0)
(8.97737 -0.261911 0)
(8.98439 -0.28426 0)
(8.99005 -0.306609 0)
(8.33516 0.0247849 0)
(8.35628 0.0689295 0)
(8.39469 0.0960888 0)
(8.4367 0.107037 0)
(8.4755 0.107662 0)
(8.51074 0.101705 0)
(8.54246 0.0916469 0)
(8.57072 0.0794828 0)
(8.59612 0.0664296 0)
(8.61936 0.0531034 0)
(8.64092 0.0398248 0)
(8.66116 0.0267392 0)
(8.68038 0.0138743 0)
(8.69879 0.0011929 0)
(8.71655 -0.0113753 0)
(8.73376 -0.0239192 0)
(8.75051 -0.0365373 0)
(8.76685 -0.0493324 0)
(8.7828 -0.0624077 0)
(8.79838 -0.0758649 0)
(8.81359 -0.089802 0)
(8.8284 -0.104312 0)
(8.84278 -0.119478 0)
(8.85666 -0.135375 0)
(8.86998 -0.152059 0)
(8.88265 -0.16957 0)
(8.89456 -0.187918 0)
(8.90561 -0.207081 0)
(8.91567 -0.226997 0)
(8.92465 -0.247557 0)
(8.93247 -0.2686 0)
(8.93908 -0.28993 0)
(8.94458 -0.311274 0)
(8.33468 0.019622 0)
(8.35143 0.0551087 0)
(8.38291 0.078102 0)
(8.41892 0.0881717 0)
(8.45356 0.0893226 0)
(8.48595 0.0845146 0)
(8.5158 0.0757875 0)
(8.54294 0.0648279 0)
(8.56771 0.0527574 0)
(8.59058 0.0401983 0)
(8.61192 0.0274969 0)
(8.63201 0.0148326 0)
(8.65109 0.00226859 0)
(8.66935 -0.0102018 0)
(8.68692 -0.0226247 0)
(8.7039 -0.0350694 0)
(8.72036 -0.0476187 0)
(8.73633 -0.0603616 0)
(8.75186 -0.0733892 0)
(8.76694 -0.0867915 0)
(8.78157 -0.100654 0)
(8.79574 -0.115058 0)
(8.80939 -0.130073 0)
(8.82249 -0.145758 0)
(8.83498 -0.162156 0)
(8.84678 -0.179292 0)
(8.8578 -0.197163 0)
(8.86797 -0.215742 0)
(8.87721 -0.234967 0)
(8.88545 -0.25474 0)
(8.89266 -0.274929 0)
(8.89882 -0.295382 0)
(8.90405 -0.315896 0)
(8.33434 0.0154053 0)
(8.34784 0.0435435 0)
(8.37389 0.0624517 0)
(8.40488 0.0711487 0)
(8.43582 0.0722733 0)
(8.46555 0.0681062 0)
(8.49357 0.0603019 0)
(8.51955 0.0502644 0)
(8.5436 0.0389953 0)
(8.56603 0.0270958 0)
(8.58707 0.0149194 0)
(8.60695 0.00266368 0)
(8.62586 -0.00958485 0)
(8.64393 -0.0218113 0)
(8.66129 -0.0340438 0)
(8.67801 -0.0463364 0)
(8.69415 -0.0587587 0)
(8.70975 -0.0713879 0)
(8.72484 -0.0843042 0)
(8.73941 -0.0975863 0)
(8.75346 -0.111309 0)
(8.76697 -0.125541 0)
(8.77992 -0.140342 0)
(8.79226 -0.155757 0)
(8.80393 -0.17182 0)
(8.81489 -0.188543 0)
(8.82507 -0.205919 0)
(8.83441 -0.223918 0)
(8.84286 -0.242482 0)
(8.85038 -0.261531 0)
(8.85697 -0.280958 0)
(8.86264 -0.300653 0)
(8.8675 -0.320464 0)
(8.33409 0.0118955 0)
(8.34516 0.0337443 0)
(8.36696 0.0487444 0)
(8.39377 0.0557367 0)
(8.42146 0.0564022 0)
(8.44876 0.0524559 0)
(8.47504 0.0452223 0)
(8.49985 0.0358543 0)
(8.52315 0.025222 0)
(8.54506 0.0138821 0)
(8.56576 0.00217704 0)
(8.58539 -0.00969194 0)
(8.60407 -0.0216257 0)
(8.62193 -0.0335945 0)
(8.63904 -0.0456123 0)
(8.65548 -0.0577203 0)
(8.67129 -0.069976 0)
(8.6865 -0.0824457 0)
(8.70113 -0.0951991 0)
(8.71518 -0.108305 0)
(8.72866 -0.121829 0)
(8.74153 -0.135828 0)
(8.75378 -0.150353 0)
(8.76538 -0.165441 0)
(8.77627 -0.181115 0)
(8.78643 -0.197383 0)
(8.79579 -0.214235 0)
(8.80434 -0.231642 0)
(8.81203 -0.249555 0)
(8.81885 -0.267909 0)
(8.8248 -0.286624 0)
(8.82992 -0.305621 0)
(8.83431 -0.324789 0)
(8.33391 0.00892047 0)
(8.34313 0.025328 0)
(8.3616 0.0366389 0)
(8.38498 0.0417159 0)
(8.40986 0.0415894 0)
(8.43498 0.0375195 0)
(8.45963 0.0305508 0)
(8.4833 0.0216169 0)
(8.50582 0.0114561 0)
(8.5272 0.000567552 0)
(8.54751 -0.0107294 0)
(8.56685 -0.0222396 0)
(8.58528 -0.0338597 0)
(8.60288 -0.0455516 0)
(8.61973 -0.0573201 0)
(8.63587 -0.069197 0)
(8.65133 -0.0812309 0)
(8.66614 -0.0934796 0)
(8.68031 -0.106004 0)
(8.69385 -0.118866 0)
(8.70674 -0.132121 0)
(8.71899 -0.145819 0)
(8.73056 -0.160003 0)
(8.74143 -0.174703 0)
(8.75157 -0.189937 0)
(8.76094 -0.205709 0)
(8.76953 -0.222009 0)
(8.7773 -0.238812 0)
(8.78425 -0.256078 0)
(8.79036 -0.273758 0)
(8.79566 -0.29179 0)
(8.80017 -0.310125 0)
(8.804 -0.328678 0)
(8.33377 0.00635299 0)
(8.34159 0.0179932 0)
(8.35746 0.0258412 0)
(8.37802 0.0288779 0)
(8.4005 0.0277064 0)
(8.4237 0.0232328 0)
(8.44687 0.0162683 0)
(8.46947 0.00755927 0)
(8.49122 -0.00228154 0)
(8.51206 -0.0128199 0)
(8.53198 -0.0237689 0)
(8.551 -0.0349486 0)
(8.56915 -0.0462598 0)
(8.58649 -0.0576628 0)
(8.60306 -0.0691574 0)
(8.61888 -0.0807695 0)
(8.63399 -0.0925411 0)
(8.64839 -0.104523 0)
(8.6621 -0.11677 0)
(8.67512 -0.129334 0)
(8.68745 -0.142267 0)
(8.69907 -0.155611 0)
(8.70998 -0.169402 0)
(8.72014 -0.183666 0)
(8.72955 -0.198417 0)
(8.73818 -0.213658 0)
(8.74601 -0.22938 0)
(8.75303 -0.245562 0)
(8.75923 -0.262174 0)
(8.76463 -0.279179 0)
(8.76925 -0.296534 0)
(8.77311 -0.314206 0)
(8.77629 -0.332132 0)
(8.33366 0.00409712 0)
(8.34041 0.0115004 0)
(8.35425 0.0160976 0)
(8.37254 0.0170265 0)
(8.39301 0.0146197 0)
(8.41454 0.00951681 0)
(8.4364 0.00233755 0)
(8.45801 -0.00633023 0)
(8.47905 -0.0159883 0)
(8.49936 -0.0262702 0)
(8.51888 -0.0369275 0)
(8.53758 -0.0478017 0)
(8.55545 -0.058804 0)
(8.57252 -0.0698977 0)
(8.58879 -0.0810823 0)
(8.60429 -0.0923812 0)
(8.61903 -0.103833 0)
(8.63303 -0.115483 0)
(8.64628 -0.127382 0)
(8.65879 -0.139577 0)
(8.67056 -0.152115 0)
(8.68157 -0.165033 0)
(8.69183 -0.178363 0)
(8.70131 -0.192127 0)
(8.71 -0.206337 0)
(8.7179 -0.220998 0)
(8.72499 -0.236101 0)
(8.73127 -0.251631 0)
(8.73675 -0.267566 0)
(8.74143 -0.283879 0)
(8.74534 -0.300539 0)
(8.74851 -0.317528 0)
(8.751 -0.334797 0)
(8.33358 0.00207806 0)
(8.33952 0.00565593 0)
(8.35178 0.00718759 0)
(8.36827 0.0059761 0)
(8.38707 0.00219114 0)
(8.4072 -0.00372333 0)
(8.42793 -0.0113015 0)
(8.44868 -0.0200887 0)
(8.46906 -0.0296891 0)
(8.48889 -0.0398042 0)
(8.50804 -0.0502278 0)
(8.52643 -0.060828 0)
(8.54403 -0.0715315 0)
(8.56082 -0.0823098 0)
(8.57681 -0.0931658 0)
(8.592 -0.104123 0)
(8.60638 -0.11522 0)
(8.61997 -0.126498 0)
(8.63278 -0.138006 0)
(8.64479 -0.149787 0)
(8.656 -0.161882 0)
(8.66643 -0.174328 0)
(8.67605 -0.187151 0)
(8.68487 -0.200372 0)
(8.69287 -0.214004 0)
(8.70006 -0.228048 0)
(8.70643 -0.242502 0)
(8.71199 -0.257353 0)
(8.71674 -0.272586 0)
(8.72069 -0.288182 0)
(8.72389 -0.304119 0)
(8.72633 -0.320388 0)
(8.72809 -0.336948 0)
(8.33352 0.00023601 0)
(8.33884 0.000299807 0)
(8.34991 -0.00108263 0)
(8.36498 -0.00444922 0)
(8.38246 -0.00972071 0)
(8.40145 -0.0165921 0)
(8.42124 -0.0247188 0)
(8.44125 -0.033756 0)
(8.46108 -0.0433989 0)
(8.48049 -0.0534136 0)
(8.4993 -0.063638 0)
(8.51741 -0.0739703 0)
(8.53475 -0.0843572 0)
(8.55128 -0.0947826 0)
(8.56699 -0.105257 0)
(8.58187 -0.115809 0)
(8.59591 -0.126476 0)
(8.60911 -0.137304 0)
(8.62146 -0.148337 0)
(8.63298 -0.159619 0)
(8.64367 -0.171189 0)
(8.65352 -0.18308 0)
(8.66253 -0.195319 0)
(8.6707 -0.207926 0)
(8.67803 -0.220911 0)
(8.68453 -0.234279 0)
(8.6902 -0.248029 0)
(8.69505 -0.262153 0)
(8.69908 -0.276638 0)
(8.70232 -0.291474 0)
(8.70479 -0.306643 0)
(8.7065 -0.322142 0)
(8.70751 -0.337935 0)
(8.33348 -0.00147833 0)
(8.33835 -0.00470362 0)
(8.34852 -0.00888775 0)
(8.36254 -0.0144208 0)
(8.379 -0.0212666 0)
(8.3971 -0.0292167 0)
(8.41616 -0.038022 0)
(8.4356 -0.0474299 0)
(8.455 -0.0572159 0)
(8.47407 -0.0672079 0)
(8.49262 -0.0772891 0)
(8.51051 -0.0873902 0)
(8.52763 -0.0974806 0)
(8.54395 -0.10756 0)
(8.55941 -0.117648 0)
(8.57401 -0.127781 0)
(8.58772 -0.137999 0)
(8.60054 -0.14835 0)
(8.61248 -0.158878 0)
(8.62353 -0.169628 0)
(8.6337 -0.180636 0)
(8.643 -0.191936 0)
(8.65141 -0.203553 0)
(8.65896 -0.215506 0)
(8.66564 -0.227808 0)
(8.67147 -0.240464 0)
(8.67645 -0.253473 0)
(8.6806 -0.266832 0)
(8.68393 -0.280532 0)
(8.68645 -0.294565 0)
(8.68819 -0.308918 0)
(8.68916 -0.32359 0)
(8.68942 -0.338546 0)
(8.33345 -0.00310886 0)
(8.338 -0.00947532 0)
(8.34756 -0.0163897 0)
(8.36082 -0.0241048 0)
(8.37657 -0.0325958 0)
(8.39404 -0.0417176 0)
(8.41258 -0.0512939 0)
(8.43162 -0.0611472 0)
(8.45072 -0.0711237 0)
(8.46956 -0.0811097 0)
(8.48792 -0.0910342 0)
(8.50563 -0.100864 0)
(8.52259 -0.110595 0)
(8.53872 -0.120247 0)
(8.55396 -0.129856 0)
(8.56829 -0.139466 0)
(8.5817 -0.149128 0)
(8.59417 -0.158891 0)
(8.6057 -0.168805 0)
(8.61631 -0.178913 0)
(8.62599 -0.189256 0)
(8.63474 -0.199865 0)
(8.64259 -0.210767 0)
(8.64954 -0.221981 0)
(8.6556 -0.23352 0)
(8.66078 -0.24539 0)
(8.6651 -0.257594 0)
(8.66857 -0.270127 0)
(8.67121 -0.282985 0)
(8.67304 -0.29616 0)
(8.67407 -0.309642 0)
(8.67432 -0.32343 0)
(8.67385 -0.337491 0)
(8.33343 -0.0046958 0)
(8.33779 -0.0141282 0)
(8.34697 -0.0237477 0)
(8.35978 -0.03368 0)
(8.3751 -0.0438939 0)
(8.39221 -0.0542875 0)
(8.41048 -0.0647431 0)
(8.42933 -0.0751488 0)
(8.4483 -0.0854149 0)
(8.46706 -0.0954826 0)
(8.48536 -0.105326 0)
(8.50301 -0.114946 0)
(8.51988 -0.124367 0)
(8.53589 -0.13363 0)
(8.55097 -0.142785 0)
(8.56509 -0.151889 0)
(8.57823 -0.160999 0)
(8.59039 -0.170171 0)
(8.60155 -0.179459 0)
(8.61173 -0.18891 0)
(8.62094 -0.198564 0)
(8.62919 -0.208456 0)
(8.63649 -0.218612 0)
(8.64286 -0.229053 0)
(8.64831 -0.239792 0)
(8.65286 -0.250838 0)
(8.65654 -0.262192 0)
(8.65934 -0.273855 0)
(8.66131 -0.285821 0)
(8.66245 -0.298084 0)
(8.66279 -0.310634 0)
(8.66233 -0.32347 0)
(8.66114 -0.336558 0)
(8.33342 -0.00627758 0)
(8.3377 -0.0187713 0)
(8.34672 -0.0311158 0)
(8.35936 -0.0433114 0)
(8.37453 -0.0553037 0)
(8.39155 -0.0670147 0)
(8.40978 -0.0783702 0)
(8.42863 -0.0893153 0)
(8.44764 -0.0998205 0)
(8.46644 -0.109884 0)
(8.48478 -0.11953 0)
(8.50245 -0.128801 0)
(8.51931 -0.137757 0)
(8.53526 -0.146464 0)
(8.55023 -0.154995 0)
(8.56418 -0.163422 0)
(8.5771 -0.171815 0)
(8.58897 -0.180238 0)
(8.5998 -0.18875 0)
(8.60959 -0.197402 0)
(8.61837 -0.206237 0)
(8.62614 -0.215292 0)
(8.63293 -0.224593 0)
(8.63875 -0.234163 0)
(8.64363 -0.244015 0)
(8.64759 -0.254158 0)
(8.65065 -0.264594 0)
(8.65283 -0.275323 0)
(8.65416 -0.286341 0)
(8.65465 -0.297641 0)
(8.65433 -0.309213 0)
(8.65321 -0.321054 0)
(8.65136 -0.333129 0)
(8.33342 -0.00789517 0)
(8.33774 -0.0235249 0)
(8.34684 -0.0386807 0)
(8.3596 -0.0532445 0)
(8.37495 -0.0671401 0)
(8.39221 -0.0803112 0)
(8.41071 -0.0927244 0)
(8.42986 -0.104376 0)
(8.44916 -0.115289 0)
(8.46824 -0.125513 0)
(8.48681 -0.135113 0)
(8.50466 -0.144172 0)
(8.52163 -0.152779 0)
(8.53762 -0.161027 0)
(8.55256 -0.169009 0)
(8.56641 -0.176815 0)
(8.57915 -0.184527 0)
(8.59078 -0.19222 0)
(8.6013 -0.199961 0)
(8.61073 -0.207807 0)
(8.6191 -0.215807 0)
(8.62641 -0.223998 0)
(8.6327 -0.232411 0)
(8.63799 -0.24107 0)
(8.64231 -0.249989 0)
(8.64569 -0.259179 0)
(8.64815 -0.268642 0)
(8.64972 -0.278379 0)
(8.65042 -0.288386 0)
(8.65028 -0.298655 0)
(8.64933 -0.309175 0)
(8.64756 -0.319941 0)
(8.64505 -0.330917 0)
(8.33344 -0.00959291 0)
(8.3379 -0.0285084 0)
(8.3473 -0.046595 0)
(8.36047 -0.0635968 0)
(8.37629 -0.0793994 0)
(8.39404 -0.0939573 0)
(8.41306 -0.107277 0)
(8.43271 -0.119415 0)
(8.45248 -0.130466 0)
(8.47199 -0.140546 0)
(8.49093 -0.149782 0)
(8.50908 -0.158306 0)
(8.52627 -0.16625 0)
(8.5424 -0.173742 0)
(8.5574 -0.180898 0)
(8.57123 -0.187828 0)
(8.58387 -0.194628 0)
(8.59533 -0.201384 0)
(8.60561 -0.20817 0)
(8.61474 -0.215046 0)
(8.62274 -0.222064 0)
(8.62965 -0.229265 0)
(8.63549 -0.23668 0)
(8.6403 -0.244333 0)
(8.64411 -0.252239 0)
(8.64696 -0.260407 0)
(8.64887 -0.268842 0)
(8.64987 -0.277541 0)
(8.65 -0.2865 0)
(8.64929 -0.295711 0)
(8.64775 -0.305162 0)
(8.64541 -0.314845 0)
(8.64234 -0.324724 0)
(8.33347 -0.0114272 0)
(8.33822 -0.0339045 0)
(8.34824 -0.0551946 0)
(8.36224 -0.0749219 0)
(8.37901 -0.0929577 0)
(8.39776 -0.109274 0)
(8.41777 -0.123904 0)
(8.43835 -0.136945 0)
(8.45897 -0.148534 0)
(8.47921 -0.158836 0)
(8.49877 -0.168025 0)
(8.5174 -0.176279 0)
(8.53496 -0.18377 0)
(8.55134 -0.19066 0)
(8.56647 -0.197099 0)
(8.58032 -0.20322 0)
(8.5929 -0.209142 0)
(8.6042 -0.214966 0)
(8.61425 -0.220778 0)
(8.62309 -0.22665 0)
(8.63074 -0.23264 0)
(8.63724 -0.238792 0)
(8.64264 -0.245143 0)
(8.64697 -0.251718 0)
(8.65027 -0.258533 0)
(8.65259 -0.265598 0)
(8.65396 -0.272918 0)
(8.65441 -0.28049 0)
(8.65397 -0.288309 0)
(8.65269 -0.296365 0)
(8.65059 -0.304646 0)
(8.64768 -0.313139 0)
(8.64403 -0.321808 0)
(8.33351 -0.013458 0)
(8.33868 -0.0398294 0)
(8.34955 -0.0644882 0)
(8.36465 -0.0868748 0)
(8.3826 -0.106839 0)
(8.40257 -0.124406 0)
(8.42379 -0.139698 0)
(8.44554 -0.152922 0)
(8.46723 -0.164325 0)
(8.48844 -0.174158 0)
(8.50885 -0.18267 0)
(8.5282 -0.190096 0)
(8.54633 -0.19665 0)
(8.56315 -0.202528 0)
(8.5786 -0.207903 0)
(8.59264 -0.212926 0)
(8.60529 -0.217727 0)
(8.61656 -0.222417 0)
(8.62649 -0.227089 0)
(8.63513 -0.231819 0)
(8.64251 -0.236666 0)
(8.64868 -0.241679 0)
(8.65371 -0.246893 0)
(8.65763 -0.252335 0)
(8.66049 -0.25802 0)
(8.66234 -0.263958 0)
(8.66322 -0.270152 0)
(8.66317 -0.2766 0)
(8.66224 -0.283295 0)
(8.66046 -0.290226 0)
(8.65787 -0.297377 0)
(8.65449 -0.304739 0)
(8.65039 -0.312271 0)
(8.33359 -0.015798 0)
(8.33952 -0.046748 0)
(8.35191 -0.0755503 0)
(8.36895 -0.101517 0)
(8.38899 -0.124486 0)
(8.41104 -0.144452 0)
(8.43421 -0.161523 0)
(8.4577 -0.175931 0)
(8.4809 -0.187978 0)
(8.50339 -0.197991 0)
(8.52483 -0.206295 0)
(8.54501 -0.213201 0)
(8.56378 -0.218996 0)
(8.58106 -0.223935 0)
(8.59681 -0.228239 0)
(8.61102 -0.2321 0)
(8.62372 -0.235679 0)
(8.63494 -0.239108 0)
(8.64472 -0.242497 0)
(8.65313 -0.245933 0)
(8.66023 -0.249483 0)
(8.66606 -0.253199 0)
(8.6707 -0.257119 0)
(8.6742 -0.261269 0)
(8.67661 -0.265667 0)
(8.67799 -0.270321 0)
(8.67839 -0.275232 0)
(8.67785 -0.280398 0)
(8.67643 -0.285809 0)
(8.67416 -0.291452 0)
(8.67108 -0.297312 0)
(8.66721 -0.303373 0)
(8.66263 -0.309594 0)
(8.33365 -0.0185103 0)
(8.34033 -0.054444 0)
(8.35428 -0.0870816 0)
(8.37328 -0.115566 0)
(8.39546 -0.139948 0)
(8.41978 -0.160495 0)
(8.44524 -0.177554 0)
(8.47093 -0.191547 0)
(8.49618 -0.202909 0)
(8.52051 -0.212049 0)
(8.54355 -0.219347 0)
(8.56508 -0.225151 0)
(8.58495 -0.229771 0)
(8.60309 -0.233481 0)
(8.61949 -0.236519 0)
(8.63416 -0.239089 0)
(8.64715 -0.241363 0)
(8.65851 -0.243482 0)
(8.66832 -0.245563 0)
(8.67665 -0.247698 0)
(8.68358 -0.24996 0)
(8.68918 -0.252403 0)
(8.69353 -0.255067 0)
(8.6967 -0.25798 0)
(8.69875 -0.261158 0)
(8.69975 -0.264609 0)
(8.69975 -0.268335 0)
(8.6988 -0.272329 0)
(8.69697 -0.276584 0)
(8.69429 -0.281085 0)
(8.69083 -0.285813 0)
(8.6866 -0.290754 0)
(8.68171 -0.295863 0)
(8.33389 -0.0219743 0)
(8.34258 -0.0649701 0)
(8.36007 -0.104227 0)
(8.38313 -0.138557 0)
(8.4092 -0.167762 0)
(8.43702 -0.191894 0)
(8.46552 -0.211274 0)
(8.49378 -0.226471 0)
(8.52118 -0.23812 0)
(8.54728 -0.246835 0)
(8.57178 -0.253181 0)
(8.59449 -0.257667 0)
(8.6153 -0.260731 0)
(8.63417 -0.262741 0)
(8.6511 -0.264004 0)
(8.66613 -0.264771 0)
(8.67932 -0.265246 0)
(8.69075 -0.265588 0)
(8.7005 -0.265926 0)
(8.70868 -0.266355 0)
(8.71536 -0.26695 0)
(8.72064 -0.267762 0)
(8.7246 -0.268828 0)
(8.72733 -0.270173 0)
(8.72891 -0.271808 0)
(8.72939 -0.273738 0)
(8.72885 -0.275962 0)
(8.72735 -0.278472 0)
(8.72495 -0.281256 0)
(8.7217 -0.284299 0)
(8.71765 -0.287581 0)
(8.71284 -0.291084 0)
(8.70733 -0.294763 0)
(8.33385 -0.025933 0)
(8.34336 -0.0749113 0)
(8.36324 -0.116985 0)
(8.38967 -0.151925 0)
(8.41978 -0.180811 0)
(8.45208 -0.204313 0)
(8.4851 -0.222985 0)
(8.51759 -0.237469 0)
(8.54874 -0.248382 0)
(8.57806 -0.256285 0)
(8.60521 -0.26171 0)
(8.63002 -0.265146 0)
(8.65243 -0.267032 0)
(8.67245 -0.26775 0)
(8.69014 -0.267631 0)
(8.70559 -0.266953 0)
(8.71892 -0.265943 0)
(8.73027 -0.264787 0)
(8.73975 -0.26363 0)
(8.74751 -0.262584 0)
(8.75365 -0.261733 0)
(8.7583 -0.261136 0)
(8.76157 -0.260832 0)
(8.76356 -0.260846 0)
(8.76435 -0.261191 0)
(8.76404 -0.261869 0)
(8.7627 -0.262875 0)
(8.7604 -0.264201 0)
(8.75721 -0.265833 0)
(8.75319 -0.267756 0)
(8.74841 -0.269948 0)
(8.74293 -0.272392 0)
(8.73683 -0.275035 0)
(8.33495 -0.0326943 0)
(8.35103 -0.0967792 0)
(8.37952 -0.152876 0)
(8.41335 -0.19889 0)
(8.44906 -0.23519 0)
(8.48575 -0.262596 0)
(8.52223 -0.282428 0)
(8.55744 -0.296162 0)
(8.59073 -0.305074 0)
(8.6217 -0.310228 0)
(8.65007 -0.312521 0)
(8.67572 -0.312687 0)
(8.69864 -0.31131 0)
(8.71889 -0.30886 0)
(8.7366 -0.305707 0)
(8.75191 -0.302144 0)
(8.76499 -0.2984 0)
(8.77601 -0.294651 0)
(8.78515 -0.29103 0)
(8.79257 -0.287637 0)
(8.79841 -0.28454 0)
(8.80282 -0.281786 0)
(8.80592 -0.279406 0)
(8.80783 -0.277411 0)
(8.80865 -0.275807 0)
(8.80846 -0.27459 0)
(8.80735 -0.273749 0)
(8.80539 -0.273274 0)
(8.80265 -0.27315 0)
(8.79917 -0.273364 0)
(8.79503 -0.2739 0)
(8.79028 -0.274745 0)
(8.78498 -0.275843 0)
(8.334 -0.0375663 0)
(8.34958 -0.102616 0)
(8.3829 -0.15386 0)
(8.42477 -0.196053 0)
(8.4697 -0.231174 0)
(8.51528 -0.25895 0)
(8.5594 -0.279818 0)
(8.6009 -0.294666 0)
(8.63946 -0.304339 0)
(8.67503 -0.309706 0)
(8.70768 -0.311652 0)
(8.73756 -0.310988 0)
(8.76486 -0.308421 0)
(8.78977 -0.304544 0)
(8.81245 -0.299842 0)
(8.83305 -0.294698 0)
(8.85171 -0.289406 0)
(8.86856 -0.284186 0)
(8.88372 -0.279197 0)
(8.8973 -0.27455 0)
(8.9094 -0.270317 0)
(8.92012 -0.266538 0)
(8.92954 -0.263232 0)
(8.93775 -0.260401 0)
(8.94482 -0.258035 0)
(8.95082 -0.256116 0)
(8.9558 -0.254622 0)
(8.95983 -0.253532 0)
(8.96294 -0.252826 0)
(8.9652 -0.252491 0)
(8.96666 -0.252524 0)
(8.96739 -0.252919 0)
(8.96751 -0.253646 0)
(8.33956 -0.0615266 0)
(8.37669 -0.172861 0)
(8.42522 -0.253289 0)
(8.47404 -0.308437 0)
(8.52528 -0.345444 0)
(8.58055 -0.368725 0)
(8.63832 -0.3824 0)
(8.69733 -0.389567 0)
(8.75664 -0.392177 0)
(8.81517 -0.391544 0)
(8.87189 -0.388592 0)
(8.92601 -0.383973 0)
(8.97698 -0.378164 0)
(9.02439 -0.371535 0)
(9.06803 -0.36438 0)
(9.10782 -0.356943 0)
(9.1438 -0.349428 0)
(9.17608 -0.341998 0)
(9.20483 -0.334786 0)
(9.23024 -0.32789 0)
(9.25255 -0.321384 0)
(9.27196 -0.315313 0)
(9.2887 -0.309705 0)
(9.30297 -0.304567 0)
(9.31498 -0.299897 0)
(9.32488 -0.29568 0)
(9.33285 -0.291899 0)
(9.33901 -0.288535 0)
(9.34349 -0.285582 0)
(9.34638 -0.283039 0)
(9.34781 -0.28096 0)
(9.34785 -0.279351 0)
(9.34672 -0.278426 0)
(8.33754 -0.0473178 0)
(8.39311 -0.123391 0)
(8.49288 -0.189219 0)
(8.60714 -0.253078 0)
(8.72843 -0.308447 0)
(8.85118 -0.352118 0)
(8.9684 -0.384762 0)
(9.07585 -0.407215 0)
(9.17122 -0.420581 0)
(9.25322 -0.426409 0)
(9.32151 -0.426293 0)
(9.3765 -0.421674 0)
(9.41901 -0.4138 0)
(9.45017 -0.40371 0)
(9.47119 -0.392237 0)
(9.48335 -0.380033 0)
(9.48783 -0.367597 0)
(9.48576 -0.355293 0)
(9.47814 -0.343384 0)
(9.46585 -0.332045 0)
(9.44967 -0.321384 0)
(9.43027 -0.311458 0)
(9.40819 -0.302283 0)
(9.38393 -0.293847 0)
(9.35787 -0.286114 0)
(9.33034 -0.279031 0)
(9.30161 -0.272539 0)
(9.27188 -0.266574 0)
(9.2413 -0.261083 0)
(9.20991 -0.256025 0)
(9.1779 -0.251482 0)
(9.14492 -0.24739 0)
(9.11179 -0.244875 0)
(8.40933 -0.222172 0)
(8.63509 -0.43086 0)
(8.83272 -0.526856 0)
(8.97516 -0.589255 0)
(9.06663 -0.62382 0)
(9.10603 -0.636114 0)
(9.09761 -0.633671 0)
(9.05077 -0.62053 0)
(8.9744 -0.599508 0)
(8.876 -0.573167 0)
(8.76213 -0.54357 0)
(8.63821 -0.51231 0)
(8.50852 -0.480629 0)
(8.37633 -0.449459 0)
(8.24409 -0.419463 0)
(8.11357 -0.391083 0)
(7.986 -0.364588 0)
(7.86221 -0.340111 0)
(7.74269 -0.317687 0)
(7.62772 -0.297279 0)
(7.51738 -0.278802 0)
(7.41167 -0.26214 0)
(7.31048 -0.247155 0)
(7.21364 -0.233698 0)
(7.12099 -0.221613 0)
(7.0323 -0.210743 0)
(6.94736 -0.200918 0)
(6.86594 -0.191979 0)
(6.78779 -0.183726 0)
(6.71255 -0.175977 0)
(6.63986 -0.168595 0)
(6.56868 -0.160628 0)
(6.49936 -0.155997 0)
(8.13686 -0.207692 0)
(7.84613 -0.38944 0)
(7.3812 -0.44148 0)
(6.85206 -0.442626 0)
(6.34788 -0.411671 0)
(5.87162 -0.362938 0)
(5.42599 -0.308739 0)
(5.01849 -0.255501 0)
(4.65029 -0.206474 0)
(4.31948 -0.163302 0)
(4.02377 -0.12645 0)
(3.76035 -0.0957071 0)
(3.52609 -0.0705372 0)
(3.31785 -0.0502493 0)
(3.13265 -0.0341139 0)
(2.96772 -0.0214399 0)
(2.82052 -0.0116086 0)
(2.68878 -0.00408615 0)
(2.57049 0.00157721 0)
(2.46388 0.00575363 0)
(2.36739 0.00874788 0)
(2.27969 0.0108077 0)
(2.1996 0.0121348 0)
(2.12614 0.0128935 0)
(2.05844 0.0132244 0)
(1.99579 0.0132474 0)
(1.93757 0.0130971 0)
(1.88339 0.0129038 0)
(1.83266 0.0129289 0)
(1.78571 0.0135 0)
(1.74139 0.0150908 0)
(1.70246 0.020456 0)
(1.66584 0.01569 0)
(2.40976 -0.138355 0)
(2.80224 -0.22696 0)
(3.11959 -0.362573 0)
(3.30548 -0.475265 0)
(3.38641 -0.49851 0)
(3.40848 -0.410326 0)
(3.43534 -0.22819 0)
(3.65194 0.0577164 0)