/*--------------------------------*- C++ -*----------------------------------*\
| =========                 |                                                 |
| \\      /  F ield         | OpenFOAM: The Open Source CFD Toolbox           |
|  \\    /   O peration     | Version:  2.1.1                                 |
|   \\  /    A nd           | Web:      www.OpenFOAM.org                      |
|    \\/     M anipulation  |                                                 |
\*---------------------------------------------------------------------------*/
FoamFile
{
    version     2.0;
    format      ascii;
    class       volScalarField;
    location    "0.16";
    object      epsilon;
}
// * * * * * * * * * * * * * * * * * * * * * * * * * * * * * * * * * * * * * //

dimensions      [0 2 -3 0 0 0 0];

internalField   nonuniform List<scalar> 
6820
(
151.448
203.151
260.735
321.761
383.629
443.725
499.765
550.04
593.493
629.684
658.679
680.919
697.079
707.956
714.376
717.136
716.965
714.505
710.305
704.825
698.441
691.456
684.111
676.593
669.047
661.579
654.266
647.178
640.269
633.948
626.332
626.426
591.069
11.7448
21.4174
29.9439
38.6246
47.5805
56.5577
65.3193
73.664
81.4297
88.5078
94.8436
100.43
105.297
109.501
113.114
116.213
118.876
121.175
123.176
124.936
126.504
127.922
129.224
130.438
131.588
132.695
133.778
134.861
135.968
137.17
138.484
140.382
142.533
5.83781
7.51678
9.20657
10.8092
12.3197
13.7472
15.0882
16.339
17.4979
18.5648
19.5414
20.4314
21.24
21.9737
22.6398
23.2459
23.7995
24.3081
24.7786
25.2174
25.6301
26.0217
26.3967
26.7589
27.1115
27.4571
27.7983
28.1371
28.4753
28.8155
29.1601
29.5057
29.9016
5.2423
5.56004
6.00443
6.49345
6.98567
7.46186
7.91293
8.33458
8.72514
9.08445
9.41327
9.71293
9.98514
10.2318
10.4549
10.6566
10.8387
11.0033
11.1521
11.2871
11.4097
11.5214
11.6238
11.7179
11.805
11.886
11.9618
12.0329
12.1
12.1634
12.2225
12.278
12.3272
5.17349
5.18677
5.26821
5.39776
5.55637
5.72967
5.90778
6.08427
6.2551
6.41785
6.57113
6.71424
6.84694
6.96929
7.08157
7.18419
7.27764
7.36248
7.43929
7.50865
7.57116
7.62738
7.67787
7.72315
7.76373
7.80006
7.83258
7.86169
7.88772
7.911
7.93176
7.95026
7.96656
5.16878
5.12131
5.09602
5.09482
5.11536
5.15307
5.20299
5.26075
5.32292
5.38693
5.45089
5.51349
5.57381
5.63123
5.68537
5.736
5.78303
5.82643
5.86628
5.90268
5.93576
5.96568
5.99263
6.01679
6.03835
6.0575
6.07442
6.0893
6.10231
6.11364
6.12343
6.13181
6.13898
5.16887
5.11169
5.06116
5.01963
4.9884
4.96754
4.95615
4.95279
4.95587
4.96386
4.97543
4.98945
5.00502
5.02142
5.03809
5.05459
5.07061
5.08589
5.10029
5.11367
5.12598
5.13716
5.14722
5.15617
5.16402
5.17082
5.17662
5.18147
5.18542
5.18855
5.19091
5.19256
5.19358
5.16902
5.11063
5.05514
5.00339
4.95619
4.91413
4.87746
4.8461
4.81971
4.7978
4.77979
4.76509
4.75315
4.74346
4.73559
4.72913
4.72376
4.71922
4.71528
4.71174
4.70847
4.70535
4.70227
4.69917
4.69599
4.6927
4.68926
4.68567
4.6819
4.67796
4.67386
4.66958
4.66516
5.16904
5.11054
5.05431
5.00049
4.94927
4.9009
4.85558
4.81345
4.77454
4.7388
4.70609
4.67621
4.64894
4.62403
4.60123
4.5803
4.56103
4.54321
4.52665
4.51119
4.49668
4.48299
4.47002
4.45767
4.44586
4.43452
4.42359
4.41302
4.40277
4.3928
4.3831
4.37363
4.36436
5.16904
5.11054
5.0542
5.00002
4.94795
4.89803
4.85027
4.80471
4.76137
4.72027
4.68137
4.64464
4.60999
4.57733
4.54656
4.51756
4.49021
4.46438
4.43997
4.41686
4.39494
4.37411
4.35429
4.33539
4.31733
4.30005
4.28348
4.26757
4.25227
4.23753
4.22332
4.2096
4.19633
5.16904
5.11053
5.05418
4.99994
4.94772
4.89747
4.84912
4.80264
4.75798
4.71513
4.67404
4.63468
4.59702
4.561
4.52657
4.49367
4.46224
4.43221
4.40352
4.37608
4.34984
4.32472
4.30067
4.27762
4.25551
4.23429
4.2139
4.1943
4.17544
4.15728
4.13979
4.12292
4.10663
5.16904
5.11052
5.05417
4.99991
4.94767
4.89735
4.84888
4.80218
4.75718
4.71383
4.67208
4.63187
4.59315
4.55588
4.52002
4.48551
4.45231
4.42037
4.38964
4.36009
4.33165
4.30428
4.27794
4.25258
4.22815
4.20462
4.18195
4.16008
4.139
4.11866
4.09902
4.08007
4.06175
5.16904
5.11052
5.05416
4.99989
4.94764
4.89731
4.8488
4.80205
4.75698
4.7135
4.67157
4.63111
4.59208
4.55441
4.51805
4.48296
4.4491
4.41641
4.38485
4.35439
4.32498
4.29658
4.26916
4.24268
4.21709
4.19238
4.16849
4.14541
4.1231
4.10152
4.08066
4.06048
4.04095
5.16903
5.11052
5.05415
4.99988
4.94762
4.89727
4.84876
4.802
4.7569
4.71339
4.67141
4.63089
4.59176
4.55397
4.51746
4.48219
4.4481
4.41516
4.3833
4.3525
4.32271
4.2939
4.26603
4.23907
4.21298
4.18772
4.16328
4.13962
4.11671
4.09452
4.07303
4.05222
4.03205
5.16903
5.11051
5.05414
4.99987
4.9476
4.89725
4.84873
4.80195
4.75684
4.71332
4.67132
4.63078
4.59162
4.5538
4.51725
4.48192
4.44776
4.41473
4.38278
4.35186
4.32194
4.29298
4.26495
4.2378
4.21151
4.18604
4.16136
4.13745
4.11428
4.09183
4.07005
4.04895
4.02847
5.16903
5.11051
5.05413
4.99986
4.94758
4.89723
4.8487
4.80191
4.7568
4.71327
4.67126
4.6307
4.59153
4.55369
4.51713
4.48178
4.4476
4.41453
4.38255
4.35159
4.32163
4.29262
4.26452
4.23731
4.21094
4.18539
4.16063
4.13662
4.11335
4.09078
4.06889
4.04766
4.02705
5.16903
5.1105
5.05413
4.99985
4.94757
4.89721
4.84867
4.80188
4.75676
4.71322
4.6712
4.63063
4.59146
4.55361
4.51703
4.48167
4.44747
4.4144
4.3824
4.35143
4.32144
4.29241
4.26429
4.23705
4.21066
4.18508
4.16028
4.13623
4.11292
4.0903
4.06837
4.04708
4.02642
5.16903
5.1105
5.05412
4.99984
4.94756
4.89719
4.84865
4.80185
4.75672
4.71317
4.67115
4.63057
4.59139
4.55353
4.51694
4.48157
4.44737
4.41428
4.38227
4.35129
4.32129
4.29225
4.26412
4.23686
4.21046
4.18486
4.16004
4.13598
4.11265
4.09001
4.06805
4.04674
4.02605
5.16903
5.1105
5.05412
4.99983
4.94755
4.89718
4.84863
4.80183
4.75669
4.71314
4.6711
4.63052
4.59132
4.55346
4.51686
4.48148
4.44727
4.41418
4.38216
4.35116
4.32116
4.29211
4.26397
4.2367
4.21028
4.18467
4.15985
4.13577
4.11242
4.08977
4.06779
4.04647
4.02576
5.16903
5.1105
5.05412
4.99982
4.94754
4.89716
4.84861
4.8018
4.75666
4.7131
4.67106
4.63047
4.59127
4.55339
4.51679
4.4814
4.44718
4.41408
4.38205
4.35105
4.32104
4.29198
4.26382
4.23655
4.21012
4.1845
4.15966
4.13558
4.11222
4.08956
4.06757
4.04623
4.02551
5.16903
5.1105
5.05411
4.99982
4.94753
4.89715
4.8486
4.80178
4.75663
4.71307
4.67102
4.63043
4.59122
4.55334
4.51672
4.48133
4.4471
4.41399
4.38195
4.35094
4.32092
4.29185
4.26369
4.23641
4.20997
4.18434
4.15949
4.1354
4.11203
4.08935
4.06735
4.046
4.02527
5.16903
5.11049
5.05411
4.99981
4.94752
4.89714
4.84858
4.80177
4.75661
4.71304
4.67099
4.63039
4.59117
4.55328
4.51666
4.48126
4.44703
4.41391
4.38186
4.35085
4.32082
4.29174
4.26357
4.23628
4.20983
4.18419
4.15933
4.13523
4.11185
4.08916
4.06715
4.04579
4.02504
5.16903
5.11049
5.05411
4.99981
4.94752
4.89713
4.84857
4.80175
4.75659
4.71302
4.67096
4.63035
4.59113
4.55324
4.51661
4.4812
4.44696
4.41383
4.38178
4.35076
4.32072
4.29163
4.26346
4.23615
4.2097
4.18405
4.15918
4.13507
4.11168
4.08898
4.06696
4.04558
4.02483
5.16903
5.11049
5.0541
4.99981
4.94751
4.89712
4.84856
4.80174
4.75657
4.71299
4.67093
4.63032
4.59109
4.55319
4.51656
4.48115
4.4469
4.41377
4.38171
4.35068
4.32063
4.29154
4.26335
4.23604
4.20958
4.18392
4.15904
4.13492
4.11152
4.08881
4.06678
4.04539
4.02463
5.16903
5.11049
5.0541
4.9998
4.94751
4.89712
4.84855
4.80172
4.75656
4.71297
4.67091
4.63029
4.59106
4.55315
4.51652
4.4811
4.44684
4.4137
4.38164
4.3506
4.32055
4.29145
4.26325
4.23594
4.20946
4.1838
4.15891
4.13478
4.11137
4.08866
4.06661
4.04522
4.02444
5.16903
5.11049
5.0541
4.9998
4.9475
4.89711
4.84854
4.80171
4.75654
4.71296
4.67089
4.63027
4.59103
4.55312
4.51648
4.48106
4.4468
4.41365
4.38158
4.35053
4.32048
4.29137
4.26317
4.23584
4.20936
4.18369
4.1588
4.13465
4.11123
4.08851
4.06646
4.04505
4.02427
5.16903
5.11049
5.0541
4.9998
4.9475
4.89711
4.84854
4.8017
4.75653
4.71294
4.67087
4.63025
4.59101
4.55309
4.51645
4.48102
4.44675
4.4136
4.38152
4.35047
4.32041
4.29129
4.26309
4.23575
4.20927
4.18359
4.15869
4.13454
4.11111
4.08838
4.06632
4.0449
4.02411
5.16903
5.11049
5.0541
4.9998
4.9475
4.89711
4.84853
4.8017
4.75653
4.71294
4.67086
4.63023
4.59099
4.55307
4.51642
4.48099
4.44672
4.41357
4.38148
4.35043
4.32036
4.29123
4.26302
4.23568
4.20919
4.1835
4.15859
4.13444
4.111
4.08826
4.06619
4.04477
4.02397
5.16903
5.11049
5.0541
4.9998
4.9475
4.8971
4.84853
4.80169
4.75651
4.71292
4.67084
4.63021
4.59097
4.55305
4.51639
4.48095
4.44668
4.41352
4.38144
4.35038
4.3203
4.29117
4.26296
4.23561
4.20911
4.18342
4.15851
4.13434
4.1109
4.08816
4.06608
4.04465
4.02384
5.16903
5.11049
5.0541
4.9998
4.9475
4.89711
4.84854
4.8017
4.75653
4.71294
4.67086
4.63023
4.59098
4.55306
4.5164
4.48096
4.44668
4.41352
4.38143
4.35037
4.32029
4.29115
4.26293
4.23558
4.20908
4.18338
4.15846
4.13429
4.11084
4.08809
4.06601
4.04457
4.02376
5.16903
5.11049
5.0541
4.9998
4.9475
4.8971
4.84853
4.80169
4.75651
4.71292
4.67084
4.6302
4.59096
4.55303
4.51638
4.48093
4.44666
4.4135
4.3814
4.35034
4.32026
4.29113
4.2629
4.23555
4.20905
4.18335
4.15843
4.13426
4.11081
4.08805
4.06597
4.04454
4.02372
5.16903
5.11049
5.0541
4.99981
4.94752
4.89714
4.84858
4.80176
4.7566
4.71301
4.67094
4.63031
4.59106
4.55314
4.51649
4.48105
4.44677
4.4136
4.38151
4.35045
4.32037
4.29124
4.26302
4.23568
4.20917
4.18348
4.15857
4.13441
4.11097
4.08823
4.06616
4.04474
4.02394
5.16903
5.11051
5.05414
4.99985
4.94756
4.89718
4.84861
4.80178
4.75661
4.71303
4.67096
4.63034
4.59111
4.5532
4.51657
4.48115
4.4469
4.41378
4.38172
4.3507
4.32067
4.29159
4.26343
4.23615
4.20971
4.18409
4.15925
4.13517
4.11182
4.08917
4.06719
4.04587
4.02517
5.16903
5.1105
5.05415
4.99992
4.9477
4.89739
4.8489
4.80214
4.75704
4.71352
4.67152
4.63098
4.59183
4.55402
4.5175
4.48221
4.44811
4.41515
4.38328
4.35247
4.32267
4.29384
4.26595
4.23896
4.21283
4.18753
4.16303
4.13931
4.11632
4.09405
4.07247
4.05155
4.03127
5.16905
5.11063
5.0544
5.00025
4.94809
4.89785
4.84947
4.80288
4.75802
4.71483
4.67324
4.63319
4.59463
4.5575
4.52174
4.4873
4.45413
4.42217
4.39137
4.36169
4.33307
4.30548
4.27888
4.25321
4.22844
4.20453
4.18144
4.15915
4.13761
4.1168
4.09668
4.07722
4.0584
5.16908
5.11079
5.05488
5.00137
4.95017
4.90121
4.85441
4.80973
4.76712
4.72651
4.68783
4.65101
4.61597
4.58263
4.55089
4.52067
4.49189
4.46446
4.4383
4.41335
4.38952
4.36675
4.34498
4.32414
4.30418
4.28504
4.26668
4.24906
4.23212
4.21583
4.20015
4.18506
4.1705
5.16939
5.11358
5.06201
5.01464
4.97149
4.9325
4.89749
4.86618
4.83828
4.81344
4.79135
4.7717
4.7542
4.73861
4.72469
4.71222
4.70103
4.69094
4.68181
4.67352
4.66596
4.65901
4.65261
4.64667
4.64113
4.63593
4.63103
4.62638
4.62194
4.61769
4.61359
4.60963
4.60577
5.17809
5.16328
5.16951
5.19121
5.2244
5.26607
5.31382
5.36577
5.42049
5.4769
5.53416
5.59161
5.64875
5.70519
5.76064
5.81488
5.86775
5.91913
5.96895
6.01716
6.06374
6.10868
6.15198
6.19368
6.23379
6.27235
6.30941
6.345
6.37918
6.41198
6.44347
6.47368
6.50269
5.63861
6.43044
7.14589
7.82568
8.49473
9.14706
9.77679
10.3816
10.9612
11.5166
12.0492
12.5605
13.052
13.5252
13.9812
14.4213
14.8463
15.2573
15.6548
16.0397
16.4125
16.7738
17.124
17.4637
17.7933
18.1131
18.4235
18.7249
19.0177
19.3021
19.5784
19.847
20.1082
44.7794
48.3124
51.8864
55.4656
59.0311
62.5709
66.0744
69.5319
72.9346
76.2747
79.5455
82.741
85.8563
88.8875
91.8315
94.6857
97.4486
100.119
102.697
105.181
107.574
109.875
112.085
114.207
116.242
118.191
120.057
121.843
123.55
125.181
126.739
128.225
129.644
704.732
837.828
942.611
1022.35
1082.64
1124.12
1145.2
1145.22
1125.68
1090.44
1044.6
993.34
940.952
890.382
843.242
800.093
760.828
725.028
692.209
661.953
633.946
607.972
583.87
561.5
540.72
521.373
503.288
486.287
470.192
454.835
440.058
425.72
411.693
397.866
384.14
370.428
356.655
342.758
328.686
314.398
299.87
285.091
270.065
254.814
239.376
223.807
208.181
192.584
177.12
161.904
147.057
132.705
118.974
105.981
93.8311
82.6115
72.3863
63.193
55.0411
47.9126
41.7639
36.531
32.135
28.4883
25.5011
23.0867
21.165
19.6657
18.5287
17.7046
17.1532
16.8426
16.7465
16.843
17.1114
17.5303
18.0755
18.7178
19.4228
20.1502
20.8556
21.4919
22.0125
22.3735
22.5371
22.4729
22.1602
21.5885
20.7583
19.6812
18.3802
16.8894
15.2534
13.5266
11.7709
10.0523
8.43743
6.97119
5.77529
4.35762
147.589
154.779
165.269
180.274
200.641
226.953
259.354
297.165
338.807
381.997
424.019
462.141
494.032
518.114
533.733
541.144
541.322
535.668
525.724
512.93
498.478
483.255
467.854
452.622
437.731
423.239
409.14
395.397
381.958
368.771
355.784
342.943
330.198
317.497
304.794
292.044
279.211
266.263
253.182
239.958
226.595
213.11
199.532
185.907
172.292
158.762
145.398
132.295
119.555
107.281
95.5778
84.5429
74.2638
64.8118
56.2385
48.5718
41.8146
35.9452
30.9193
26.6741
23.1341
20.2167
17.8383
15.9192
14.3867
13.1778
12.2396
11.5294
11.0136
10.6668
10.4707
10.4124
10.483
10.6768
10.9886
11.4127
11.9407
12.5591
13.2481
13.9808
14.7228
15.434
16.0709
16.5896
16.9496
17.1161
17.0633
16.7757
16.2493
15.4924
14.5252
13.3799
12.0993
10.7356
9.34679
7.99338
6.73266
5.60227
4.69164
3.63078
30.2775
30.7046
31.3493
32.3994
34.0284
36.3873
39.5599
43.8337
49.5429
57.0168
66.5295
78.244
92.1568
108.058
125.519
143.92
162.508
180.479
197.074
211.661
223.794
233.241
239.977
244.138
245.981
245.818
243.977
240.763
236.438
231.215
225.258
218.688
211.594
204.04
196.075
187.738
179.065
170.091
160.857
151.403
141.78
132.044
122.257
112.49
102.819
93.3274
84.0989
75.2195
66.7716
58.8317
51.4655
44.7251
38.6455
33.2426
28.5125
24.432
20.9616
18.0488
15.6327
13.649
12.0341
10.7287
9.67995
8.84261
8.17911
7.65924
7.25928
6.96124
6.75194
6.62232
6.56679
6.58266
6.66963
6.82916
7.06372
7.37577
7.76642
8.23373
8.77088
9.36452
9.99366
10.6296
11.2374
11.7779
12.2116
12.5019
12.6189
12.5418
12.261
11.7793
11.112
10.2863
9.3404
8.32072
7.2784
6.26512
5.32745
4.49441
3.82961
3.06256
12.3793
12.4485
12.5354
12.6456
12.793
12.9974
13.2844
13.6666
14.168
14.8306
15.7068
16.8573
18.3491
20.2537
22.6426
25.5812
29.119
33.2785
38.0436
43.352
49.0926
55.1104
61.2173
67.2085
72.8802
78.0464
82.552
86.281
89.1594
91.1528
92.2615
92.5128
91.9539
90.6448
88.6531
86.05
82.9084
79.3012
75.3018
70.9832
66.419
61.6832
56.8501
51.9934
47.1853
42.4952
37.9874
33.7192
29.7389
26.0836
22.7783
19.8346
17.2515
15.0165
13.1071
11.4945
10.1453
9.02516
8.10064
7.34082
6.7183
6.20961
5.7951
5.45868
5.18746
4.97131
4.80248
4.67528
4.58582
4.53181
4.51243
4.5282
4.58091
4.67348
4.8097
4.99392
5.23033
5.52204
5.86973
6.2701
6.71423
7.18647
7.66415
8.11854
8.51706
8.82654
9.01684
9.06432
8.95464
8.68462
8.26296
7.71002
7.05615
6.33939
5.60128
4.88287
4.21978
3.63296
3.16702
2.62986
7.98309
8.0006
8.01733
8.03353
8.05049
8.07081
8.09829
8.1372
8.18935
8.25939
8.35359
8.47963
8.64651
8.86431
9.14402
9.49726
9.93576
10.4709
11.1128
11.8695
12.7463
13.744
14.8582
16.0776
17.3839
18.7506
20.1439
21.5237
22.846
24.0654
25.1379
26.024
26.6908
27.1142
27.2792
27.1811
26.8245
26.2228
25.3972
24.375
23.1886
21.8735
20.4671
19.0069
17.529
16.0669
14.65
13.303
12.0447
10.8882
9.84073
8.90453
8.07746
7.35406
6.72662
6.18612
5.72303
5.32792
4.99187
4.70674
4.46527
4.26117
4.08903
3.94436
3.82345
3.72336
3.64185
3.57733
3.52883
3.49603
3.47921
3.4793
3.49788
3.53722
3.60023
3.69037
3.81142
3.96704
4.16011
4.39173
4.66001
4.95879
5.27666
5.59662
5.8968
6.1523
6.338
6.43179
6.41766
6.28819
6.04583
5.70313
5.28146
4.80878
4.31595
3.83311
3.38612
2.98946
2.67462
2.30878
6.14563
6.15105
6.15432
6.15571
6.1555
6.15403
6.15189
6.14983
6.14853
6.14886
6.15192
6.15904
6.1718
6.19203
6.22179
6.26327
6.31878
6.39056
6.48071
6.59102
6.72287
6.87701
7.05352
7.25158
7.46937
7.70394
7.95111
8.20548
8.46046
8.70844
8.94108
9.14965
9.32548
9.46048
9.54761
9.58136
9.55808
9.47628
9.33671
9.14234
8.89812
8.61073
8.28808
7.93891
7.57222
7.19682
6.82093
6.45178
6.09545
5.75672
5.43904
5.14465
4.87468
4.62932
4.40805
4.20979
4.03309
3.87628
3.73757
3.61516
3.50732
3.41241
3.32895
3.25563
3.19135
3.1352
3.0865
3.04478
3.00986
2.98179
2.96093
2.94796
2.94391
2.9502
2.96866
3.00153
3.05135
3.12085
3.21263
3.32864
3.46955
3.63383
3.81688
4.01038
4.20207
4.3764
4.51598
4.60383
4.62595
4.57366
4.44527
4.24677
3.99113
3.69667
3.38424
3.0744
2.78509
2.52598
2.31965
2.0761
5.19389
5.19304
5.19079
5.18712
5.18202
5.17554
5.1678
5.15893
5.14914
5.13866
5.12776
5.11672
5.10586
5.09556
5.08627
5.07852
5.07285
5.06986
5.07015
5.07427
5.08268
5.09573
5.11359
5.13621
5.16333
5.1944
5.22856
5.26472
5.30146
5.33713
5.36989
5.39776
5.41869
5.4307
5.43194
5.42082
5.3961
5.35696
5.30306
5.23458
5.15219
5.05705
4.95072
4.83507
4.71222
4.58438
4.45375
4.32247
4.19247
4.06545
3.94284
3.82575
3.71501
3.61114
3.5144
3.42486
3.34235
3.26659
3.19717
3.13364
3.07548
3.02216
2.97319
2.92809
2.88646
2.84796
2.81233
2.77941
2.74917
2.72169
2.69721
2.67614
2.65907
2.64684
2.6405
2.64138
2.65103
2.6712
2.7037
2.75017
2.81172
2.88847
2.97898
3.07968
3.18453
3.28502
3.37079
3.43073
3.45472
3.43531
3.36925
3.25836
3.10935
2.93295
2.74207
2.54974
2.36793
2.20281
2.07068
1.91119
4.65974
4.65301
4.64551
4.63716
4.62796
4.61788
4.60696
4.59522
4.58266
4.56932
4.55526
4.54052
4.52515
4.50924
4.49286
4.47612
4.45914
4.44209
4.42511
4.4084
4.39211
4.37641
4.36141
4.34719
4.33376
4.32104
4.3089
4.29709
4.28529
4.27309
4.25999
4.24546
4.22894
4.20984
4.18761
4.16176
4.13188
4.09765
4.05892
4.01565
3.96796
3.91615
3.8606
3.80185
3.74053
3.67732
3.61294
3.5481
3.48351
3.41978
3.3575
3.29711
3.239
3.18341
3.13053
3.0804
3.03302
2.98829
2.94605
2.90612
2.86826
2.83225
2.79784
2.7648
2.73294
2.70207
2.67208
2.64287
2.61444
2.58683
2.56017
2.5347
2.51073
2.48874
2.46931
2.45319
2.4413
2.4347
2.43451
2.44189
2.4578
2.48276
2.51657
2.55792
2.60411
2.65089
2.69266
2.72298
2.73542
2.72471
2.68775
2.6244
2.5376
2.43302
2.31808
2.20048
2.08792
1.98399
1.90052
1.7968
4.35377
4.34158
4.32908
4.3162
4.3029
4.28915
4.27493
4.26021
4.24499
4.22926
4.21304
4.1963
4.17905
4.16128
4.14298
4.12414
4.10479
4.08492
4.06458
4.04379
4.0226
4.00106
3.97922
3.95712
3.9348
3.91227
3.88954
3.86656
3.8433
3.81965
3.79552
3.77076
3.74523
3.71877
3.69122
3.66243
3.63229
3.6007
3.56761
3.53302
3.49697
3.45956
3.42094
3.38132
3.3409
3.29997
3.25878
3.21762
3.17676
3.13645
3.09691
3.05832
3.02083
2.98454
2.94948
2.91566
2.88305
2.85156
2.82109
2.79151
2.76267
2.73443
2.70662
2.6791
2.65174
2.62443
2.59707
2.56961
2.54203
2.51435
2.48664
2.459
2.43164
2.4048
2.3788
2.35408
2.33116
2.31065
2.29324
2.27968
2.27065
2.26669
2.26801
2.27427
2.28441
2.29651
2.30779
2.31479
2.31383
2.30162
2.27584
2.23578
2.18248
2.11867
2.04834
1.97577
1.90572
1.83996
1.78713
1.71909
4.18136
4.16446
4.1475
4.13044
4.11324
4.09586
4.0783
4.06053
4.04253
4.02429
4.00579
3.98702
3.96795
3.94857
3.92884
3.90876
3.8883
3.86743
3.84616
3.82446
3.80233
3.77979
3.75682
3.73345
3.70969
3.68556
3.66106
3.6362
3.611
3.58544
3.55952
3.53322
3.50653
3.47941
3.45185
3.42382
3.3953
3.3663
3.3368
3.30685
3.27648
3.24574
3.21471
3.18349
3.15218
3.12088
3.08973
3.05883
3.02829
2.99822
2.96869
2.93977
2.91149
2.88387
2.8569
2.83054
2.80472
2.77937
2.75439
2.72967
2.7051
2.68055
2.65591
2.63106
2.6059
2.58035
2.55433
2.52779
2.50072
2.47311
2.445
2.41645
2.38756
2.35849
2.32941
2.30059
2.27232
2.24496
2.21894
2.1947
2.17272
2.15341
2.13708
2.12376
2.11316
2.10452
2.09658
2.08766
2.07583
2.05921
2.03635
2.00654
1.97004
1.92803
1.88256
1.83582
1.79071
1.74776
1.71344
1.66728
4.08831
4.06773
4.04721
4.02672
4.00625
3.98576
3.96525
3.94469
3.92407
3.90339
3.88262
3.86176
3.84078
3.81968
3.79842
3.77699
3.75537
3.73354
3.71147
3.68914
3.66655
3.64367
3.6205
3.59704
3.57328
3.54922
3.52488
3.50026
3.47536
3.45021
3.42481
3.39918
3.37333
3.34727
3.32101
3.29458
3.26799
3.24126
3.21443
3.18752
3.16057
3.13363
3.10674
3.07996
3.05335
3.02695
3.00082
2.97502
2.94958
2.92455
2.89993
2.87574
2.85197
2.82859
2.80557
2.78285
2.76037
2.73803
2.71575
2.69343
2.67096
2.64825
2.62519
2.60169
2.57766
2.55304
2.52775
2.50176
2.47504
2.44758
2.41941
2.39057
2.36111
2.33113
2.30076
2.27015
2.23949
2.20899
2.17892
2.14958
2.12127
2.0943
2.06894
2.04534
2.02352
2.00327
1.98411
1.96532
1.94599
1.92517
1.90205
1.87614
1.84744
1.81641
1.78408
1.75143
1.72026
1.6903
1.66661
1.63321
4.04114
4.01798
3.99491
3.97192
3.94899
3.92611
3.90328
3.88048
3.85771
3.83497
3.81224
3.78952
3.7668
3.74407
3.72131
3.69852
3.67567
3.65276
3.62976
3.60666
3.58344
3.5601
3.53662
3.51299
3.48921
3.46527
3.44118
3.41694
3.39255
3.36802
3.34337
3.31861
3.29376
3.26883
3.24385
3.21884
3.19383
3.16884
3.14389
3.11903
3.09429
3.06969
3.04527
3.02107
2.99712
2.97345
2.95007
2.92702
2.90431
2.88193
2.85988
2.83815
2.81671
2.79552
2.77452
2.75366
2.73286
2.71205
2.69113
2.67001
2.64861
2.62683
2.60458
2.58179
2.55836
2.53424
2.50938
2.48374
2.45728
2.43002
2.40195
2.37311
2.34354
2.31331
2.2825
2.25124
2.21965
2.18788
2.15611
2.12455
2.0934
2.06289
2.03324
2.00462
1.97716
1.95088
1.92566
1.90127
1.87735
1.85348
1.8293
1.80453
1.77914
1.75329
1.72748
1.70209
1.67825
1.65527
1.63733
1.61092
4.01894
3.99419
3.9695
3.94487
3.92031
3.89581
3.87137
3.84698
3.82265
3.79837
3.77415
3.74998
3.72586
3.70179
3.67776
3.65377
3.62981
3.60587
3.58195
3.55802
3.53409
3.51015
3.48618
3.46219
3.43816
3.4141
3.39
3.36587
3.34171
3.31752
3.29333
3.26912
3.24493
3.22077
3.19665
3.1726
3.14864
3.12479
3.10107
3.07751
3.05413
3.03096
3.00802
2.98534
2.96293
2.9408
2.91897
2.89745
2.87622
2.85528
2.83461
2.81418
2.79395
2.77389
2.75393
2.73401
2.71407
2.69401
2.67377
2.65326
2.63239
2.61108
2.58924
2.56681
2.54371
2.51989
2.49529
2.46988
2.44365
2.41657
2.38867
2.35996
2.33048
2.30029
2.26947
2.23809
2.20627
2.17413
2.14179
2.10942
2.07717
2.04523
2.01376
1.98294
1.9529
1.92376
1.89556
1.86829
1.84186
1.81615
1.79103
1.76639
1.74224
1.71863
1.69583
1.67392
1.65368
1.63418
1.6191
1.59617
4.00928
3.98364
3.95804
3.93247
3.90694
3.88146
3.85602
3.83063
3.80529
3.78001
3.75478
3.72961
3.7045
3.67947
3.65449
3.62959
3.60475
3.57998
3.55526
3.53061
3.50601
3.48147
3.45697
3.43253
3.40813
3.38378
3.35947
3.33522
3.31103
3.28689
3.26283
3.23884
3.21495
3.19116
3.16748
3.14394
3.12055
3.09733
3.0743
3.05147
3.02887
3.0065
2.98439
2.96255
2.94098
2.9197
2.8987
2.87799
2.85754
2.83734
2.81738
2.7976
2.77798
2.75847
2.73901
2.71954
2.69999
2.68029
2.66036
2.64012
2.61949
2.59839
2.57676
2.55451
2.53159
2.50794
2.48351
2.45828
2.43222
2.40533
2.37761
2.34908
2.31979
2.28977
2.25911
2.22786
2.19613
2.16402
2.13165
2.09914
2.06662
2.03426
2.00219
1.97056
1.93954
1.90923
1.87975
1.85118
1.82355
1.79688
1.77118
1.74642
1.72267
1.69993
1.67839
1.65799
1.63933
1.62139
1.60756
1.58609
4.00534
3.97926
3.95319
3.92714
3.9011
3.87509
3.8491
3.82315
3.79723
3.77134
3.74551
3.71973
3.694
3.66833
3.64274
3.61721
3.59176
3.56638
3.54109
3.51588
3.49075
3.4657
3.44074
3.41587
3.39109
3.3664
3.34182
3.31733
3.29296
3.2687
3.24457
3.22056
3.19671
3.17301
3.14947
3.12612
3.10296
3.08
3.05727
3.03478
3.01253
2.99054
2.96882
2.94738
2.92621
2.90533
2.88472
2.86437
2.84428
2.82441
2.80475
2.78525
2.76588
2.74659
2.72732
2.70801
2.6886
2.66901
2.64918
2.62903
2.60848
2.58747
2.56591
2.54374
2.52091
2.49736
2.47305
2.44796
2.42205
2.39532
2.36779
2.33947
2.31039
2.28061
2.25017
2.21917
2.18767
2.15578
2.1236
2.09124
2.05884
2.02651
1.99441
1.96265
1.9314
1.90076
1.87088
1.84185
1.81377
1.78671
1.76073
1.73588
1.71222
1.68977
1.66868
1.64883
1.63075
1.61334
1.59991
1.57879
4.00376
3.97748
3.9512
3.92491
3.89863
3.87236
3.84609
3.81985
3.79362
3.76742
3.74125
3.71513
3.68904
3.66301
3.63704
3.61113
3.58529
3.55952
3.53384
3.50824
3.48273
3.45731
3.432
3.40678
3.38168
3.3567
3.33183
3.3071
3.2825
3.25805
3.23375
3.20961
3.18566
3.16188
3.13831
3.11494
3.09179
3.06887
3.0462
3.02378
3.00163
2.97974
2.95814
2.93681
2.91576
2.89499
2.8745
2.85425
2.83425
2.81446
2.79487
2.77542
2.75608
2.73681
2.71755
2.69824
2.67881
2.65921
2.63936
2.61919
2.59863
2.57761
2.55606
2.53392
2.51113
2.48765
2.46342
2.43843
2.41266
2.38609
2.35874
2.33062
2.30177
2.27223
2.24206
2.21133
2.18012
2.14853
2.11664
2.08457
2.05243
2.02035
1.98846
1.95687
1.92573
1.89516
1.86528
1.83622
1.80807
1.78093
1.75489
1.73001
1.70636
1.68398
1.66299
1.64325
1.62525
1.60791
1.59444
1.57311
4.00306
3.97669
3.95031
3.92392
3.89753
3.87113
3.84474
3.81835
3.79197
3.76561
3.73927
3.71296
3.68669
3.66046
3.63427
3.60814
3.58207
3.55607
3.53014
3.50429
3.47852
3.45286
3.42729
3.40182
3.37648
3.35125
3.32615
3.3012
3.27639
3.25173
3.22725
3.20294
3.17882
3.1549
3.1312
3.10771
3.08446
3.06146
3.03871
3.01622
2.994
2.97206
2.9504
2.92903
2.90793
2.88711
2.86656
2.84626
2.82619
2.80633
2.78666
2.76713
2.7477
2.72834
2.70898
2.68957
2.67005
2.65035
2.63041
2.61017
2.58954
2.56847
2.54689
2.52474
2.50197
2.47852
2.45436
2.42947
2.40381
2.37739
2.35021
2.3223
2.29367
2.26438
2.23449
2.20405
2.17315
2.14187
2.11031
2.07857
2.04677
2.01501
1.98343
1.95213
1.92125
1.89091
1.86123
1.83231
1.80428
1.77722
1.75123
1.72637
1.70273
1.68033
1.6593
1.63949
1.62136
1.60384
1.59014
1.56832
4.00265
3.97624
3.94982
3.92338
3.89693
3.87047
3.84401
3.81756
3.7911
3.76466
3.73824
3.71183
3.68545
3.65911
3.6328
3.60654
3.58034
3.55419
3.52811
3.5021
3.47618
3.45034
3.42459
3.39895
3.37342
3.34801
3.32274
3.29759
3.2726
3.24777
3.22311
3.19863
3.17434
3.15026
3.12639
3.10274
3.07934
3.05619
3.03329
3.01066
2.9883
2.96622
2.94442
2.92291
2.90167
2.88071
2.86001
2.83957
2.81935
2.79934
2.77951
2.75982
2.74023
2.72071
2.70119
2.68163
2.66197
2.64214
2.62207
2.60172
2.581
2.55986
2.53823
2.51605
2.49327
2.46985
2.44574
2.42093
2.39538
2.3691
2.34209
2.31437
2.28597
2.25693
2.2273
2.19716
2.16656
2.13561
2.10439
2.073
2.04155
2.01015
1.97891
1.94795
1.91738
1.88733
1.85791
1.82923
1.80138
1.77447
1.74858
1.72378
1.70015
1.6777
1.65657
1.63661
1.61826
1.60046
1.58644
1.56401
4.00234
3.97591
3.94946
3.92299
3.89651
3.87002
3.84352
3.81702
3.79053
3.76404
3.73756
3.7111
3.68466
3.65825
3.63187
3.60553
3.57924
3.553
3.52682
3.5007
3.47466
3.44871
3.42284
3.39707
3.3714
3.34585
3.32043
3.29514
3.27
3.24501
3.22019
3.19555
3.1711
3.14685
3.12282
3.09901
3.07543
3.05211
3.02904
3.00624
2.9837
2.96145
2.93947
2.91778
2.89636
2.87521
2.85432
2.83368
2.81327
2.79307
2.77304
2.75315
2.73338
2.71366
2.69396
2.67422
2.65439
2.6344
2.6142
2.59372
2.57289
2.55166
2.52997
2.50775
2.48496
2.46156
2.4375
2.41275
2.38731
2.36117
2.33432
2.30679
2.2786
2.2498
2.22044
2.19059
2.1603
2.12967
2.09879
2.06775
2.03665
2.0056
1.97471
1.9441
1.91386
1.88412
1.85499
1.82655
1.79892
1.77218
1.7464
1.72166
1.69804
1.67554
1.65429
1.63414
1.61552
1.5974
1.58303
1.55991
4.00207
3.97562
3.94914
3.92265
3.89615
3.86963
3.84311
3.81658
3.79005
3.76353
3.73702
3.71052
3.68403
3.65757
3.63114
3.60475
3.57839
3.55208
3.52583
3.49964
3.47351
3.44746
3.4215
3.39563
3.36985
3.34419
3.31865
3.29323
3.26796
3.24284
3.21788
3.19309
3.16849
3.14409
3.1199
3.09592
3.07218
3.04869
3.02544
3.00246
2.97974
2.9573
2.93513
2.91323
2.89161
2.87026
2.84917
2.82832
2.8077
2.78728
2.76704
2.74695
2.72696
2.70705
2.68715
2.66722
2.64721
2.62706
2.60671
2.58609
2.56515
2.54383
2.52207
2.49981
2.47701
2.45361
2.42959
2.40492
2.37958
2.35356
2.32687
2.29952
2.27155
2.24299
2.21389
2.18431
2.15433
2.12401
2.09346
2.06276
2.03201
2.00131
1.97077
1.94049
1.91059
1.88116
1.8523
1.82412
1.7967
1.77012
1.74446
1.71978
1.69615
1.67358
1.65219
1.63183
1.61293
1.59447
1.57971
1.55588
4.00182
3.97535
3.94885
3.92234
3.89582
3.86928
3.84273
3.81618
3.78963
3.76307
3.73653
3.70999
3.68347
3.65697
3.6305
3.60406
3.57765
3.55128
3.52497
3.49871
3.47252
3.44639
3.42034
3.39438
3.36852
3.34276
3.31711
3.29159
3.2662
3.24096
3.21587
3.19095
3.16622
3.14167
3.11733
3.0932
3.0693
3.04564
3.02222
2.99906
2.97616
2.95352
2.93116
2.90907
2.88725
2.86569
2.84439
2.82333
2.80249
2.78186
2.7614
2.7411
2.7209
2.70078
2.68068
2.66057
2.64038
2.62006
2.59956
2.57881
2.55776
2.53635
2.51451
2.49221
2.46939
2.446
2.42202
2.39742
2.37217
2.34628
2.31974
2.29257
2.26481
2.23647
2.20763
2.17833
2.14864
2.11863
2.0884
2.05804
2.02762
1.99727
1.96706
1.93711
1.90752
1.87839
1.84981
1.82186
1.79464
1.76822
1.74266
1.71803
1.69438
1.67172
1.65016
1.62958
1.61036
1.59153
1.57638
1.55182
4.00158
3.97509
3.94858
3.92205
3.8955
3.86894
3.84237
3.8158
3.78922
3.76264
3.73607
3.7095
3.68295
3.65641
3.6299
3.60341
3.57696
3.55054
3.52417
3.49786
3.4716
3.4454
3.41928
3.39324
3.3673
3.34145
3.31571
3.29008
3.26459
3.23924
3.21404
3.189
3.16413
3.13945
3.11497
3.09069
3.06664
3.04282
3.01924
2.9959
2.97283
2.95001
2.92746
2.90518
2.88316
2.8614
2.83989
2.81862
2.79757
2.77673
2.75607
2.73555
2.71515
2.69482
2.67453
2.65423
2.63386
2.61338
2.59273
2.57185
2.55069
2.52919
2.50729
2.48494
2.4621
2.43873
2.41478
2.39024
2.36509
2.33932
2.31293
2.28595
2.25838
2.23028
2.20168
2.17265
2.14325
2.11355
2.08363
2.05359
2.02351
1.99348
1.9636
1.93397
1.90468
1.87583
1.8475
1.81978
1.79274
1.76645
1.74098
1.71636
1.69267
1.6699
1.64815
1.62731
1.60775
1.58853
1.57294
1.54763
4.00135
3.97485
3.94832
3.92177
3.89521
3.86863
3.84204
3.81544
3.78884
3.76223
3.73563
3.70903
3.68245
3.65588
3.62932
3.6028
3.5763
3.54984
3.52342
3.49705
3.47073
3.44447
3.41828
3.39217
3.36615
3.34022
3.31439
3.28867
3.26308
3.23763
3.21232
3.18716
3.16218
3.13737
3.11276
3.08834
3.06415
3.04017
3.01643
2.99294
2.96969
2.9467
2.92397
2.90151
2.8793
2.85734
2.83563
2.81416
2.79291
2.77187
2.751
2.73028
2.70968
2.68916
2.66868
2.6482
2.62766
2.60702
2.58623
2.56522
2.54395
2.52236
2.5004
2.47801
2.45516
2.4318
2.40789
2.38342
2.35836
2.33272
2.30648
2.27967
2.25231
2.22443
2.19608
2.16732
2.1382
2.1088
2.07919
2.04947
2.0197
1.98999
1.96043
1.9311
1.9021
1.87351
1.84541
1.81789
1.79101
1.76482
1.7394
1.71477
1.691
1.66808
1.6461
1.62496
1.60502
1.58536
1.56932
1.54323
4.00114
3.97462
3.94808
3.92151
3.89493
3.86833
3.84172
3.8151
3.78847
3.76184
3.73521
3.70859
3.68197
3.65537
3.62878
3.60221
3.57568
3.54917
3.5227
3.49628
3.4699
3.44359
3.41734
3.39116
3.36506
3.33905
3.31314
3.28734
3.26166
3.23611
3.21069
3.18543
3.16033
3.13541
3.11067
3.08613
3.06179
3.03768
3.01379
2.99014
2.96674
2.94358
2.92068
2.89803
2.87564
2.8535
2.83161
2.80995
2.7885
2.76726
2.74619
2.72528
2.70449
2.68378
2.66312
2.64247
2.62177
2.60098
2.58005
2.55893
2.53756
2.51589
2.49387
2.47145
2.44858
2.42524
2.40138
2.37698
2.35203
2.32651
2.30043
2.2738
2.24664
2.21899