/*--------------------------------*- C++ -*----------------------------------*\
| =========                 |                                                 |
| \\      /  F ield         | OpenFOAM: The Open Source CFD Toolbox           |
|  \\    /   O peration     | Version:  2.1.1                                 |
|   \\  /    A nd           | Web:      www.OpenFOAM.org                      |
|    \\/     M anipulation  |                                                 |
\*---------------------------------------------------------------------------*/
FoamFile
{
    version     2.0;
    format      ascii;
    class       volScalarField;
    location    "0.16";
    object      k;
}
// * * * * * * * * * * * * * * * * * * * * * * * * * * * * * * * * * * * * * //

dimensions      [0 2 -2 0 0 0 0];

internalField   nonuniform List<scalar> 
6820
(
0.288909
0.351398
0.415005
0.477466
0.53686
0.591557
0.64037
0.682627
0.718121
0.747025
0.769785
0.787016
0.79942
0.807714
0.81259
0.814682
0.814552
0.812687
0.8095
0.80533
0.80046
0.795114
0.789474
0.783679
0.777841
0.772042
0.766342
0.760797
0.755373
0.750392
0.744371
0.744445
0.716162
0.265532
0.269396
0.270523
0.271341
0.272558
0.274215
0.276225
0.278476
0.280857
0.283282
0.285694
0.288065
0.290383
0.292654
0.294893
0.297118
0.299348
0.301603
0.303898
0.306246
0.308655
0.311134
0.313684
0.316307
0.319003
0.321772
0.324615
0.32754
0.330559
0.333731
0.33707
0.341073
0.34521
0.262038
0.264253
0.263596
0.261557
0.259001
0.256319
0.253627
0.250938
0.24824
0.245525
0.242794
0.240061
0.237345
0.234668
0.232052
0.229518
0.227085
0.224768
0.222581
0.220531
0.218626
0.21687
0.215263
0.213805
0.212496
0.211331
0.210308
0.209423
0.208672
0.208058
0.207568
0.207232
0.206987
0.259885
0.260272
0.259797
0.258535
0.256829
0.254891
0.252833
0.25071
0.248547
0.246358
0.244152
0.241935
0.239714
0.237495
0.235287
0.233097
0.230933
0.228801
0.226709
0.224661
0.222663
0.220719
0.218832
0.217006
0.215241
0.21354
0.211902
0.210329
0.208818
0.207371
0.205983
0.204657
0.203382
0.259299
0.258404
0.2576
0.256567
0.255295
0.25385
0.252292
0.250662
0.248985
0.247277
0.245552
0.243815
0.242075
0.240336
0.238602
0.236878
0.235168
0.233474
0.231801
0.230151
0.228527
0.22693
0.225364
0.22383
0.222329
0.220863
0.219431
0.218036
0.216676
0.215353
0.214066
0.212816
0.211603
0.259224
0.257848
0.256623
0.255437
0.254227
0.25297
0.251663
0.250313
0.248929
0.247523
0.246101
0.244671
0.243238
0.241806
0.240378
0.238959
0.23755
0.236154
0.234773
0.233409
0.232063
0.230737
0.229432
0.228149
0.226888
0.225652
0.22444
0.223252
0.22209
0.220953
0.219842
0.218758
0.217702
0.259217
0.257715
0.256309
0.25498
0.253698
0.252442
0.251196
0.249951
0.248704
0.247455
0.246205
0.244956
0.24371
0.24247
0.241237
0.240014
0.238802
0.237602
0.236416
0.235244
0.234089
0.23295
0.231828
0.230725
0.22964
0.228574
0.227527
0.226501
0.225494
0.224508
0.223542
0.222598
0.221676
0.259218
0.25769
0.256225
0.254822
0.253477
0.252181
0.250924
0.249696
0.248492
0.247307
0.246137
0.244982
0.24384
0.242711
0.241596
0.240494
0.239407
0.238333
0.237275
0.236232
0.235205
0.234194
0.233199
0.232221
0.23126
0.230316
0.229389
0.228479
0.227587
0.226713
0.225857
0.22502
0.2242
0.259218
0.257686
0.256207
0.25478
0.253405
0.25208
0.250799
0.24956
0.248357
0.247186
0.246043
0.244925
0.243831
0.242758
0.241706
0.240672
0.239658
0.238661
0.237682
0.236721
0.235777
0.23485
0.23394
0.233047
0.232171
0.231311
0.230469
0.229642
0.228833
0.22804
0.227263
0.226504
0.225761
0.259218
0.257686
0.256203
0.254769
0.253384
0.252045
0.250751
0.2495
0.248289
0.247114
0.245975
0.244867
0.243789
0.242738
0.241714
0.240713
0.239736
0.238781
0.237847
0.236933
0.236038
0.235163
0.234306
0.233468
0.232647
0.231843
0.231057
0.230287
0.229534
0.228797
0.228076
0.227372
0.226683
0.259218
0.257686
0.256202
0.254767
0.253378
0.252035
0.250735
0.249477
0.24826
0.24708
0.245938
0.244829
0.243754
0.242709
0.241694
0.240706
0.239745
0.238808
0.237895
0.237006
0.236138
0.235291
0.234464
0.233657
0.23287
0.2321
0.231349
0.230614
0.229898
0.229197
0.228513
0.227845
0.227193
0.259218
0.257685
0.256201
0.254766
0.253376
0.252031
0.250729
0.249469
0.248248
0.247066
0.24592
0.24481
0.243733
0.242689
0.241675
0.24069
0.239734
0.238804
0.2379
0.23702
0.236164
0.235331
0.234519
0.233729
0.232958
0.232208
0.231476
0.230762
0.230066
0.229388
0.228726
0.228081
0.227451
0.259218
0.257685
0.256201
0.254765
0.253375
0.25203
0.250727
0.249465
0.248243
0.24706
0.245912
0.2448
0.243722
0.242677
0.241662
0.240677
0.239722
0.238794
0.237892
0.237016
0.236164
0.235336
0.234531
0.233747
0.232985
0.232243
0.231521
0.230818
0.230133
0.229466
0.228816
0.228183
0.227567
0.259218
0.257685
0.256201
0.254764
0.253374
0.252028
0.250725
0.249463
0.248241
0.247056
0.245908
0.244795
0.243716
0.24267
0.241654
0.240669
0.239713
0.238785
0.237883
0.237008
0.236157
0.235331
0.234528
0.233747
0.232987
0.232249
0.23153
0.230832
0.230152
0.22949
0.228846
0.228219
0.227609
0.259218
0.257685
0.2562
0.254764
0.253374
0.252028
0.250724
0.249462
0.248239
0.247054
0.245906
0.244792
0.243712
0.242665
0.241649
0.240664
0.239707
0.238778
0.237876
0.237001
0.23615
0.235324
0.234521
0.23374
0.232982
0.232244
0.231527
0.23083
0.230152
0.229492
0.22885
0.228225
0.227618
0.259218
0.257685
0.2562
0.254764
0.253373
0.252027
0.250723
0.249461
0.248237
0.247052
0.245903
0.24479
0.243709
0.242662
0.241646
0.240659
0.239702
0.238773
0.237871
0.236995
0.236144
0.235317
0.234514
0.233734
0.232975
0.232237
0.23152
0.230823
0.230145
0.229486
0.228845
0.228221
0.227614
0.259218
0.257685
0.2562
0.254763
0.253373
0.252026
0.250722
0.24946
0.248236
0.247051
0.245901
0.244787
0.243707
0.242659
0.241642
0.240656
0.239698
0.238769
0.237866
0.23699
0.236138
0.235311
0.234508
0.233727
0.232968
0.23223
0.231513
0.230816
0.230138
0.229478
0.228837
0.228213
0.227605
0.259218
0.257684
0.2562
0.254763
0.253372
0.252026
0.250722
0.249459
0.248235
0.247049
0.2459
0.244785
0.243705
0.242656
0.241639
0.240653
0.239695
0.238765
0.237862
0.236985
0.236134
0.235306
0.234502
0.233721
0.232962
0.232224
0.231506
0.230809
0.23013
0.22947
0.228828
0.228204
0.227596
0.259218
0.257684
0.2562
0.254763
0.253372
0.252025
0.250721
0.249458
0.248234
0.247048
0.245898
0.244784
0.243703
0.242654
0.241637
0.24065
0.239692
0.238761
0.237858
0.236981
0.236129
0.235302
0.234497
0.233716
0.232956
0.232218
0.2315
0.230802
0.230123
0.229463
0.22882
0.228195
0.227587
0.259218
0.257684
0.2562
0.254763
0.253371
0.252025
0.25072
0.249457
0.248233
0.247047
0.245897
0.244782
0.243701
0.242652
0.241634
0.240647
0.239689
0.238758
0.237855
0.236977
0.236125
0.235297
0.234493
0.233711
0.232951
0.232212
0.231494
0.230795
0.230116
0.229455
0.228813
0.228187
0.227579
0.259218
0.257684
0.256199
0.254762
0.253371
0.252024
0.25072
0.249456
0.248232
0.247046
0.245896
0.24478
0.243699
0.24265
0.241632
0.240645
0.239686
0.238755
0.237852
0.236974
0.236121
0.235293
0.234488
0.233706
0.232946
0.232207
0.231488
0.230789
0.230109
0.229448
0.228805
0.228179
0.22757
0.259218
0.257684
0.256199
0.254762
0.253371
0.252024
0.250719
0.249456
0.248231
0.247045
0.245894
0.244779
0.243698
0.242648
0.24163
0.240642
0.239684
0.238753
0.237849
0.236971
0.236118
0.235289
0.234484
0.233702
0.232941
0.232202
0.231483
0.230783
0.230103
0.229442
0.228798
0.228172
0.227563
0.259218
0.257684
0.256199
0.254762
0.253371
0.252024
0.250719
0.249455
0.248231
0.247044
0.245893
0.244778
0.243696
0.242647
0.241629
0.24064
0.239681
0.23875
0.237846
0.236968
0.236115
0.235286
0.23448
0.233698
0.232937
0.232197
0.231478
0.230778
0.230098
0.229436
0.228792
0.228165
0.227555
0.259218
0.257684
0.256199
0.254762
0.253371
0.252023
0.250719
0.249455
0.24823
0.247043
0.245893
0.244777
0.243695
0.242645
0.241627
0.240639
0.239679
0.238748
0.237843
0.236965
0.236112
0.235283
0.234477
0.233694
0.232933
0.232192
0.231473
0.230773
0.230092
0.22943
0.228786
0.228159
0.227549
0.259218
0.257684
0.256199
0.254762
0.25337
0.252023
0.250718
0.249454
0.24823
0.247043
0.245892
0.244776
0.243694
0.242644
0.241626
0.240637
0.239677
0.238746
0.237841
0.236963
0.236109
0.23528
0.234474
0.23369
0.232929
0.232188
0.231468
0.230768
0.230087
0.229425
0.22878
0.228153
0.227542
0.259218
0.257684
0.256199
0.254762
0.25337
0.252023
0.250718
0.249454
0.248229
0.247042
0.245891
0.244775
0.243693
0.242643
0.241624
0.240636
0.239676
0.238744
0.237839
0.23696
0.236107
0.235277
0.234471
0.233687
0.232925
0.232185
0.231464
0.230764
0.230083
0.22942
0.228775
0.228147
0.227536
0.259218
0.257684
0.256199
0.254762
0.25337
0.252023
0.250718
0.249454
0.248229
0.247042
0.245891
0.244775
0.243692
0.242642
0.241623
0.240634
0.239674
0.238743
0.237837
0.236958
0.236104
0.235274
0.234468
0.233684
0.232922
0.232181
0.231461
0.23076
0.230078
0.229415
0.22877
0.228142
0.227531
0.259218
0.257684
0.256199
0.254762
0.25337
0.252023
0.250718
0.249454
0.248229
0.247041
0.24589
0.244774
0.243692
0.242642
0.241623
0.240634
0.239674
0.238741
0.237836
0.236957
0.236103
0.235273
0.234466
0.233682
0.23292
0.232178
0.231458
0.230757
0.230075
0.229411
0.228766
0.228138
0.227526
0.259218
0.257684
0.256199
0.254762
0.25337
0.252023
0.250718
0.249453
0.248228
0.247041
0.24589
0.244774
0.243691
0.242641
0.241622
0.240633
0.239672
0.23874
0.237835
0.236955
0.236101
0.235271
0.234464
0.23368
0.232917
0.232176
0.231455
0.230754
0.230072
0.229408
0.228762
0.228134
0.227522
0.259218
0.257684
0.256199
0.254762
0.25337
0.252023
0.250718
0.249454
0.248229
0.247041
0.24589
0.244774
0.243692
0.242641
0.241622
0.240633
0.239673
0.23874
0.237835
0.236955
0.236101
0.23527
0.234463
0.233679
0.232916
0.232175
0.231453
0.230752
0.23007
0.229406
0.22876
0.228131
0.227519
0.259218
0.257684
0.256199
0.254762
0.25337
0.252023
0.250718
0.249453
0.248228
0.247041
0.24589
0.244774
0.243691
0.242641
0.241622
0.240632
0.239672
0.23874
0.237834
0.236955
0.2361
0.23527
0.234463
0.233678
0.232915
0.232174
0.231452
0.230751
0.230068
0.229404
0.228758
0.228129
0.227517
0.259218
0.257684
0.256199
0.254762
0.253371
0.252024
0.25072
0.249456
0.248231
0.247044
0.245894
0.244777
0.243695
0.242645
0.241625
0.240636
0.239676
0.238743
0.237838
0.236958
0.236103
0.235273
0.234465
0.233681
0.232918
0.232176
0.231454
0.230752
0.230069
0.229405
0.228758
0.228129
0.227516
0.259218
0.257685
0.2562
0.254764
0.253373
0.252026
0.250721
0.249457
0.248232
0.247046
0.245895
0.244779
0.243697
0.242647
0.241628
0.240639
0.239679
0.238746
0.237841
0.236961
0.236106
0.235276
0.234468
0.233683
0.23292
0.232178
0.231456
0.230753
0.23007
0.229404
0.228757
0.228127
0.227513
0.259218
0.257685
0.256201
0.254766
0.253378
0.252033
0.250731
0.249469
0.248246
0.24706
0.24591
0.244795
0.243713
0.242663
0.241643
0.240654
0.239693
0.23876
0.237853
0.236973
0.236116
0.235284
0.234475
0.233688
0.232923
0.232178
0.231453
0.230748
0.230062
0.229393
0.228743
0.228109
0.227492
0.259219
0.257689
0.25621
0.254777
0.25339
0.252046
0.250743
0.249482
0.248259
0.247074
0.245924
0.244809
0.243726
0.242676
0.241655
0.240664
0.239701
0.238765
0.237854
0.236969
0.236108
0.235271
0.234455
0.233662
0.232889
0.232137
0.231404
0.23069
0.229994
0.229316
0.228656
0.228012
0.227384
0.25922
0.257694
0.256221
0.254799
0.253423
0.252089
0.250795
0.249539
0.248318
0.247131
0.245978
0.244857
0.243767
0.242706
0.241674
0.240669
0.239691
0.238738
0.237811
0.236907
0.236026
0.235167
0.23433
0.233514
0.232718
0.231942
0.231185
0.230447
0.229726
0.229023
0.228337
0.227668
0.227014
0.259229
0.257738
0.256292
0.254882
0.253508
0.252172
0.250871
0.249603
0.248368
0.247162
0.245985
0.244837
0.243716
0.242621
0.241552
0.240509
0.23949
0.238495
0.237523
0.236574
0.235648
0.234743
0.23386
0.232997
0.232154
0.23133
0.230526
0.22974
0.228973
0.228222
0.22749
0.226773
0.226074
0.259265
0.257822
0.256453
0.255125
0.253805
0.252483
0.251164
0.249854
0.248562
0.247291
0.246045
0.244828
0.24364
0.24248
0.24135
0.240248
0.239174
0.238127
0.237105
0.236109
0.235137
0.234188
0.233262
0.232358
0.231476
0.230614
0.229772
0.228949
0.228146
0.227361
0.226594
0.225845
0.225113
0.259599
0.258632
0.257578
0.256541
0.255587
0.254713
0.253905
0.25315
0.252443
0.251781
0.251163
0.250588
0.250055
0.249563
0.249112
0.248699
0.248324
0.247985
0.247679
0.247405
0.247162
0.246947
0.246759
0.246597
0.246457
0.246341
0.246245
0.246168
0.24611
0.246069
0.246044
0.246034
0.246038
0.266719
0.280569
0.294241
0.307622
0.320668
0.333362
0.345692
0.357649
0.369224
0.380413
0.391211
0.40162
0.411638
0.421271
0.430522
0.439397
0.447904
0.45605
0.463844
0.471296
0.478416
0.485213
0.4917
0.497885
0.503781
0.509398
0.514747
0.519839
0.524683
0.529291
0.533672
0.537836
0.541796
0.844069
1.01371
1.18439
1.3575
1.5309
1.69555
1.84052
1.95778
2.04422
2.10196
2.13651
2.15471
2.16286
2.16567
2.16608
2.16552
2.1645
2.16311
2.1614
2.15952
2.15773
2.15634
2.15561
2.1557
2.15665
2.15832
2.16051
2.16291
2.16516
2.16685
2.16756
2.16687
2.16434
2.15951
2.15196
2.14123
2.12692
2.10862
2.08594
2.05856
2.02619
1.98858
1.94559
1.89713
1.84322
1.78399
1.71969
1.6507
1.57751
1.50077
1.42125
1.33983
1.25748
1.17528
1.0943
1.01563
0.940312
0.869272
0.803303
0.743015
0.688813
0.640893
0.599255
0.563733
0.534032
0.509785
0.490588
0.476045
0.465796
0.459529
0.456987
0.457963
0.462282
0.469779
0.480269
0.493512
0.509183
0.52684
0.545913
0.565699
0.58538
0.604051
0.620767
0.634587
0.644627
0.650097
0.650345
0.644885
0.633423
0.615879
0.592411
0.563425
0.529603
0.491901
0.451554
0.410023
0.369001
0.329751
0.296193
0.253804
0.353976
0.367499
0.387757
0.417768
0.460396
0.518161
0.592668
0.683841
0.789462
0.905355
1.02587
1.14478
1.25624
1.35571
1.44051
1.50991
1.5648
1.60718
1.63955
1.66434
1.68364
1.69905
1.71163
1.72206
1.73071
1.73776
1.74327
1.74724
1.74959
1.75023
1.749
1.74569
1.74006
1.73184
1.72073
1.70642
1.68861
1.66704
1.64143
1.61157
1.57731
1.53856
1.49528
1.44754
1.39552
1.33948
1.27982
1.21705
1.15177
1.08474
1.01676
0.948743
0.881625
0.816347
0.753813
0.694844
0.640129
0.590192
0.545372
0.505806
0.471452
0.442107
0.417458
0.397119
0.38068
0.367744
0.357956
0.351015
0.34669
0.344817
0.345293
0.348072
0.353146
0.360527
0.370223
0.382206
0.396372
0.41251
0.430271
0.449146
0.46847
0.487442
0.505165
0.520702
0.533129
0.541601
0.545395
0.543962
0.536953
0.524253
0.506001
0.482606
0.454758
0.423429
0.38984
0.355408
0.321687
0.289823
0.262926
0.229587
0.206624
0.206396
0.2068
0.20824
0.211142
0.216018
0.223434
0.234332
0.249848
0.271206
0.299581
0.335925
0.380742
0.433905
0.494542
0.561061
0.631302
0.702787
0.773027
0.839813
0.901436
0.956795
1.00539
1.04725
1.08272
1.11237
1.13683
1.15668
1.17238
1.18428
1.19262
1.19751
1.19897
1.197
1.19152
1.18246
1.16972
1.15324
1.13296
1.10886
1.08098
1.04941
1.0143
0.975908
0.934542
0.890622
0.844649
0.797209
0.74896
0.700608
0.652891
0.606537
0.562235
0.520598
0.482123
0.447171
0.415946
0.388501
0.364746
0.344481
0.327427
0.313264
0.301663
0.292314
0.284939
0.279307
0.275233
0.272586
0.271281
0.27128
0.272589
0.275253
0.279351
0.284982
0.292257
0.301276
0.312098
0.324706
0.338973
0.354625
0.37122
0.388146
0.404642
0.419848
0.432862
0.44281
0.448916
0.450559
0.447318
0.439017
0.425743
0.407867
0.386041
0.361188
0.334456
0.307132
0.280567
0.255717
0.234966
0.209566
0.201966
0.200454
0.199041
0.19773
0.196555
0.195579
0.194894
0.194586
0.194782
0.195664
0.197465
0.200467
0.205002
0.21144
0.220181
0.231623
0.246126
0.263953
0.28522
0.30984
0.337503
0.367673
0.39963
0.432531
0.465483
0.497622
0.528169
0.556477
0.582043
0.604506
0.623634
0.63929
0.651413
0.659992
0.665048
0.666624
0.664785
0.659613
0.651216
0.639734
0.625342
0.608265
0.588772
0.567189
0.543889
0.519296
0.493868
0.468087
0.44244
0.417397
0.393389
0.370783
0.34987
0.330848
0.313818
0.298795
0.285718
0.274469
0.264894
0.25682
0.250074
0.244491
0.239923
0.236247
0.233358
0.231178
0.229654
0.228755
0.228474
0.228827
0.229857
0.231628
0.234227
0.237764
0.242363
0.248155
0.255262
0.263769
0.273703
0.284986
0.297409
0.310601
0.324028
0.33701
0.348768
0.358489
0.3654
0.368842
0.368335
0.363625
0.354722
0.341912
0.325757
0.30707
0.286846
0.266179
0.246175
0.22757
0.21215
0.193373
0.210239
0.208724
0.207234
0.20576
0.204304
0.202876
0.201494
0.200178
0.198945
0.197825
0.196852
0.196071
0.195537
0.195314
0.195473
0.196097
0.197272
0.199092
0.201654
0.205048
0.209358
0.214647
0.220951
0.228266
0.236545
0.245685
0.25553
0.265875
0.276471
0.287043
0.297304
0.306967
0.315766
0.323464
0.329862
0.334804
0.338186
0.339949
0.340082
0.338624
0.335654
0.331294
0.325703
0.319067
0.3116
0.303525
0.295074
0.28647
0.277921
0.269608
0.261683
0.254259
0.247414
0.241191
0.235604
0.230641
0.226275
0.222465
0.219165
0.216325
0.213897
0.211838
0.210108
0.208674
0.207513
0.206606
0.205948
0.20554
0.205397
0.205543
0.206019
0.206877
0.208185
0.210028
0.212504
0.215723
0.2198
0.22484
0.230924
0.23808
0.246254
0.255279
0.264856
0.274541
0.283764
0.291875
0.298201
0.302123
0.303146
0.300963
0.295498
0.286927
0.275678
0.262394
0.247873
0.232974
0.218551
0.205142
0.194069
0.180561
0.216504
0.215147
0.213788
0.212432
0.211079
0.209729
0.208385
0.207052
0.205734
0.204441
0.20318
0.201965
0.20081
0.19973
0.198745
0.197876
0.197145
0.196575
0.19619
0.196014
0.19607
0.196377
0.196953
0.19781
0.198955
0.200386
0.202093
0.204055
0.206238
0.208599
0.211081
0.213619
0.216142
0.218573
0.220837
0.22286
0.224579
0.225939
0.2269
0.227437
0.227542
0.227224
0.226505
0.225425
0.22403
0.222377
0.220527
0.218541
0.216476
0.214387
0.212322
0.210317
0.208404
0.206605
0.204931
0.203392
0.201986
0.200711
0.19956
0.198523
0.197591
0.196753
0.196001
0.195328
0.194727
0.194199
0.193746
0.193376
0.193101
0.192943
0.192928
0.193094
0.193486
0.194163
0.195192
0.196652
0.19863
0.201212
0.204478
0.208486
0.213251
0.218722
0.224762
0.231126
0.23746
0.243319
0.2482
0.251602
0.253086
0.252341
0.249233
0.243832
0.236416
0.227442
0.217494
0.207197
0.197183
0.187826
0.180106
0.170619
0.220627
0.219436
0.218237
0.21703
0.215816
0.214595
0.213369
0.212138
0.210907
0.209679
0.208458
0.207249
0.206057
0.204886
0.203746
0.202643
0.201585
0.200582
0.199643
0.198778
0.197995
0.197304
0.196712
0.196225
0.195848
0.195584
0.195434
0.195393
0.195458
0.19562
0.195867
0.196184
0.196555
0.19696
0.197379
0.19779
0.198173
0.198509
0.198779
0.19897
0.199071
0.199075
0.198981
0.19879
0.198508
0.198143
0.197707
0.197214
0.196676
0.196108
0.195522
0.19493
0.194342
0.193765
0.193204
0.192663
0.192141
0.191639
0.191153
0.190681
0.190217
0.189759
0.189302
0.188844
0.188383
0.187919
0.187455
0.186997
0.186552
0.186135
0.185762
0.185457
0.18525
0.185178
0.185285
0.185624
0.186255
0.18724
0.188643
0.190518
0.192899
0.195787
0.199128
0.202804
0.20662
0.210305
0.213528
0.215935
0.21719
0.217027
0.215296
0.211993
0.207272
0.201422
0.194836
0.18794
0.181184
0.174815
0.169564
0.163039
0.223267
0.222204
0.221131
0.220046
0.218952
0.21785
0.21674
0.215623
0.214501
0.213375
0.212247
0.211119
0.209994
0.208875
0.207765
0.206667
0.205586
0.204526
0.203491
0.202486
0.201517
0.200587
0.199702
0.198865
0.198082
0.197353
0.196683
0.196072
0.19552
0.195027
0.19459
0.194206
0.19387
0.193578
0.193323
0.193099
0.192898
0.192713
0.192538
0.192367
0.192193
0.192013
0.191823
0.191621
0.191406
0.191178
0.190938
0.190686
0.190427
0.19016
0.189889
0.189615
0.189338
0.18906
0.188779
0.188495
0.188204
0.187904
0.187592
0.187264
0.186915
0.186541
0.18614
0.185708
0.185243
0.184744
0.184213
0.183651
0.183063
0.182458
0.181844
0.181237
0.180655
0.18012
0.179661
0.179312
0.179112
0.179105
0.179337
0.17985
0.18068
0.181843
0.183329
0.185086
0.187016
0.188966
0.19074
0.192108
0.192842
0.192743
0.191679
0.189612
0.18661
0.182841
0.17855
0.174011
0.169534
0.16527
0.161766
0.157356
0.224913
0.223949
0.222973
0.221988
0.220993
0.219988
0.218975
0.217953
0.216923
0.215888
0.214848
0.213805
0.21276
0.211714
0.210671
0.20963
0.208595
0.207569
0.206552
0.205549
0.204561
0.203592
0.202645
0.201723
0.200828
0.199963
0.199131
0.198334
0.197573
0.196849
0.196164
0.195516
0.194907
0.194335
0.193797
0.193294
0.192822
0.192379
0.191963
0.19157
0.191199
0.190848
0.190514
0.190195
0.189889
0.189596
0.189313
0.189041
0.188777
0.18852
0.188269
0.188022
0.187777
0.187531
0.187282
0.187025
0.186758
0.186475
0.186172
0.185845
0.185489
0.1851
0.184673
0.184205
0.183694
0.183137
0.182534
0.181885
0.181192
0.180458
0.17969
0.178896
0.178086
0.177275
0.17648
0.175723
0.175028
0.174426
0.173947
0.173625
0.173487
0.173556
0.173837
0.174315
0.174944
0.175648
0.176316
0.176812
0.176991
0.17672
0.175898
0.174481
0.172491
0.170015
0.1672
0.164211
0.161258
0.158423
0.15611
0.153164
0.225898
0.225004
0.224101
0.223189
0.222268
0.221338
0.220399
0.219453
0.218499
0.217539
0.216573
0.215602
0.214628
0.213651
0.212673
0.211694
0.210717
0.209741
0.20877
0.207805
0.206846
0.205897
0.204959
0.204034
0.203125
0.202232
0.201359
0.200508
0.199679
0.198875
0.198097
0.197347
0.196624
0.195931
0.195267
0.194632
0.194026
0.193449
0.1929
0.192379
0.191883
0.191414
0.190969
0.190547
0.190147
0.189767
0.189407
0.189064
0.188736
0.188421
0.188118
0.187822
0.187531
0.187242
0.186951
0.186653
0.186344
0.186019
0.185674
0.185304
0.184904
0.184468
0.183994
0.183476
0.182913
0.1823
0.181636
0.180921
0.180154
0.179337
0.178473
0.177566
0.176623
0.175652
0.174665
0.173674
0.172697
0.171751
0.170858
0.170043
0.169326
0.168727
0.168259
0.167924
0.167705
0.167567
0.167456
0.167295
0.167001
0.16649
0.165694
0.164576
0.163137
0.16142
0.159508
0.157495
0.15552
0.153616
0.152088
0.150116
0.226451
0.225606
0.224754
0.223894
0.223027
0.222151
0.221268
0.220378
0.219481
0.218579
0.21767
0.216757
0.215839
0.214918
0.213995
0.213069
0.212143
0.211217
0.210292
0.209369
0.208449
0.207534
0.206625
0.205723
0.20483
0.203947
0.203076
0.202219
0.201377
0.200552
0.199745
0.198958
0.198191
0.197447
0.196726
0.196028
0.195356
0.194708
0.194086
0.193489
0.192917
0.192371
0.191849
0.191351
0.190876
0.190424
0.189992
0.18958
0.189185
0.188804
0.188437
0.188079
0.187728
0.187379
0.18703
0.186675
0.18631
0.185931
0.185533
0.18511
0.184659
0.184174
0.183651
0.183086
0.182475
0.181816
0.181105
0.180342
0.179525
0.178655
0.177732
0.17676
0.175742
0.174683
0.17359
0.172472
0.17134
0.170205
0.169083
0.16799
0.166942
0.165956
0.165045
0.164216
0.16347
0.162794
0.162165
0.161546
0.160892
0.160155
0.159296
0.158287
0.157123
0.155824
0.154437
0.153009
0.151636
0.150314
0.149279
0.147928
0.226736
0.225923
0.225104
0.224278
0.223447
0.222609
0.221764
0.220914
0.220058
0.219196
0.21833
0.217459
0.216584
0.215706
0.214824
0.213941
0.213056
0.21217
0.211284
0.210398
0.209514
0.208631
0.207752
0.206878
0.206008
0.205146
0.204291
0.203445
0.202609
0.201786
0.200975
0.200179
0.199399
0.198636
0.197891
0.197165
0.196459
0.195774
0.195111
0.19447
0.193852
0.193256
0.192682
0.192131
0.191602
0.191094
0.190606
0.190137
0.189684
0.189247
0.188822
0.188407
0.188
0.187595
0.187191
0.186782
0.186364
0.185934
0.185486
0.185015
0.184518
0.183989
0.183424
0.182819
0.18217
0.181474
0.180729
0.179932
0.179082
0.178178
0.177221
0.176212
0.175153
0.174048
0.172901
0.171718
0.170506
0.169274
0.168033
0.166793
0.165567
0.164369
0.163209
0.162099
0.161043
0.160042
0.159089
0.15817
0.157265
0.156351
0.155406
0.154414
0.153371
0.152286
0.151184
0.150089
0.149064
0.148087
0.147346
0.146365
0.226866
0.226072
0.225272
0.224468
0.223658
0.222844
0.222024
0.2212
0.220371
0.219537
0.218699
0.217857
0.217012
0.216164
0.215313
0.21446
0.213605
0.212749
0.211892
0.211035
0.210178
0.209323
0.20847
0.207619
0.206772
0.205929
0.205091
0.20426
0.203437
0.202622
0.201817
0.201024
0.200242
0.199474
0.19872
0.197982
0.19726
0.196556
0.19587
0.195203
0.194555
0.193927
0.19332
0.192732
0.192164
0.191615
0.191084
0.190571
0.190074
0.189591
0.189119
0.188658
0.188203
0.187752
0.187301
0.186846
0.186384
0.18591
0.18542
0.18491
0.184374
0.183809
0.18321
0.182573
0.181895
0.181172
0.180402
0.179582
0.17871
0.177786
0.176809
0.175781
0.174702
0.173574
0.172402
0.171189
0.169941
0.168664
0.167366
0.166056
0.164743
0.163437
0.162148
0.160887
0.159662
0.158477
0.157336
0.156235
0.155169
0.15413
0.153108
0.152097
0.151096
0.150108
0.14915
0.148229
0.147392
0.146604
0.146023
0.145246
0.226916
0.226131
0.225342
0.224549
0.223752
0.222951
0.222145
0.221336
0.220523
0.219706
0.218886
0.218063
0.217237
0.216408
0.215577
0.214744
0.213909
0.213074
0.212237
0.211401
0.210564
0.209728
0.208893
0.208061
0.20723
0.206403
0.20558
0.204762
0.20395
0.203145
0.202347
0.201559
0.20078
0.200012
0.199255
0.198512
0.197783
0.197068
0.196368
0.195686
0.195019
0.194371
0.193739
0.193126
0.19253
0.191952
0.19139
0.190843
0.190312
0.189793
0.189286
0.188787
0.188295
0.187806
0.187318
0.186827
0.186329
0.18582
0.185296
0.184753
0.184187
0.183594
0.182968
0.182307
0.181607
0.180864
0.180076
0.179241
0.178355
0.17742
0.176433
0.175395
0.174308
0.173172
0.171991
0.170768
0.169508
0.168215
0.166895
0.165556
0.164206
0.162852
0.161504
0.160171
0.158861
0.157582
0.156339
0.155137
0.153976
0.152858
0.15178
0.150743
0.149747
0.148795
0.147899
0.147059
0.146313
0.145616
0.145113
0.144427
0.226928
0.226147
0.225363
0.224575
0.223784
0.22299
0.222192
0.22139
0.220586
0.219779
0.218968
0.218155
0.21734
0.216523
0.215703
0.214882
0.21406
0.213237
0.212413
0.211589
0.210765
0.209942
0.209119
0.208298
0.207479
0.206663
0.20585
0.205042
0.204238
0.203439
0.202648
0.201863
0.201087
0.20032
0.199563
0.198817
0.198083
0.197362
0.196654
0.19596
0.195282
0.194618
0.19397
0.193338
0.192722
0.192122
0.191536
0.190965
0.190407
0.189861
0.189325
0.188798
0.188277
0.187759
0.187241
0.186721
0.186195
0.185658
0.185108
0.18454
0.18395
0.183334
0.182688
0.182009
0.181292
0.180535
0.179735
0.178889
0.177996
0.177054
0.176063
0.175022
0.173934
0.172798
0.171617
0.170395
0.169134
0.16784
0.166518
0.165173
0.163813
0.162444
0.161075
0.159713
0.158368
0.157046
0.155756
0.154503
0.153292
0.152129
0.151016
0.149955
0.148951
0.148006
0.14713
0.14632
0.145607
0.144944
0.144466
0.143804
0.226925
0.226145
0.225363
0.224577
0.223788
0.222996
0.222201
0.221404
0.220603
0.2198
0.218994
0.218187
0.217377
0.216565
0.215751
0.214937
0.214121
0.213304
0.212487
0.21167
0.210853
0.210036
0.20922
0.208406
0.207594
0.206783
0.205976
0.205173
0.204373
0.203579
0.20279
0.202008
0.201233
0.200466
0.199708
0.198959
0.198222
0.197495
0.196781
0.196079
0.195391
0.194716
0.194055
0.193409
0.192778
0.19216
0.191556
0.190966
0.190387
0.18982
0.189262
0.188712
0.188168
0.187627
0.187086
0.186543
0.185994
0.185436
0.184864
0.184276
0.183668
0.183035
0.182373
0.18168
0.180951
0.180184
0.179376
0.178523
0.177626
0.176681
0.175689
0.17465
0.173564
0.172432
0.171257
0.17004
0.168787
0.1675
0.166184
0.164845
0.163489
0.162122
0.160752
0.159385
0.158031
0.156696
0.155388
0.154114
0.152881
0.151696
0.150562
0.149485
0.14847
0.147519
0.146642
0.145834
0.145123
0.144461
0.14398
0.143301
0.226917
0.226137
0.225355
0.224569
0.223781
0.222989
0.222195
0.221399
0.220599
0.219798
0.218994
0.218188
0.21738
0.21657
0.215759
0.214947
0.214133
0.213319
0.212505
0.21169
0.210876
0.210062
0.209249
0.208437
0.207627
0.206819
0.206014
0.205212
0.204414
0.203621
0.202832
0.20205
0.201274
0.200505
0.199745
0.198993
0.198251
0.19752
0.196799
0.19609
0.195393
0.194709
0.194038
0.19338
0.192735
0.192104
0.191485
0.190879
0.190284
0.189699
0.189124
0.188555
0.187992
0.187432
0.186873
0.186311
0.185744
0.185168
0.18458
0.183976
0.183352
0.182706
0.182032
0.181328
0.18059
0.179816
0.179001
0.178145
0.177246
0.176301
0.175311
0.174274
0.173193
0.172068
0.1709
0.169693
0.16845
0.167173
0.165869
0.164541
0.163196
0.16184
0.160478
0.159118
0.157768
0.156435
0.155126
0.153848
0.152608
0.151414
0.15027
0.149182
0.148156
0.147195
0.146307
0.145487
0.144762
0.144083
0.143582
0.142862
0.226907
0.226127
0.225344
0.224558
0.223769
0.222978
0.222184
0.221387
0.220587
0.219786
0.218982
0.218176
0.217368
0.216558
0.215748
0.214935
0.214122
0.213308
0.212494
0.211679
0.210865
0.210051
0.209238
0.208426
0.207616
0.206808
0.206002
0.205199
0.2044
0.203605
0.202815
0.20203
0.201252
0.20048
0.199716
0.19896
0.198213
0.197476
0.196749
0.196032
0.195328
0.194635
0.193954
0.193285
0.192629
0.191986
0.191354
0.190734
0.190125
0.189526
0.188935
0.188351
0.187772
0.187196
0.186621
0.186043
0.185461
0.18487
0.184268
0.183651
0.183015
0.182357
0.181674
0.180961
0.180217
0.179437
0.178618
0.17776
0.17686
0.175916
0.174929
0.173897
0.172822
0.171704
0.170546
0.169349
0.168117
0.166853
0.165562
0.164248
0.162916
0.161573
0.160225
0.158878
0.157538
0.156213
0.154911
0.153637
0.152398
0.151202
0.150054
0.148959
0.147923
0.146949
0.146045
0.145206
0.144458
0.143753
0.143223
0.14245
0.226898
0.226117
0.225333
0.224547
0.223757
0.222965
0.22217
0.221373
0.220573
0.21977
0.218966
0.218159
0.21735
0.21654
0.215728
0.214915
0.214101
0.213286
0.21247
0.211655
0.210839
0.210023
0.209209
0.208395
0.207583
0.206772
0.205964
0.205159
0.204357
0.203559
0.202766
0.201978
0.201195
0.200419
0.19965
0.198889
0.198136
0.197393
0.196659
0.195935
0.195222
0.19452
0.19383
0.193152
0.192485
0.191831
0.191187
0.190555
0.189933
0.189321
0.188716
0.188119
0.187526
0.186936
0.186347
0.185756
0.18516
0.184557
0.183942
0.183314
0.182667
0.182
0.181308
0.180589
0.179838
0.179054
0.178233
0.177373
0.176473
0.175532
0.174548
0.173521
0.172452
0.171342
0.170193
0.169007
0.167786
0.166535
0.165257
0.163958
0.162641
0.161313
0.159979
0.158645
0.157318
0.156005
0.154712
0.153445
0.152211
0.151015
0.149865
0.148763
0.147718
0.146729
0.145807
0.144946
0.144169
0.143432
0.142869
0.142035
0.226888
0.226107
0.225323
0.224535
0.223745
0.222952
0.222157
0.221358
0.220557
0.219754
0.218948
0.218141
0.217331
0.216519
0.215706
0.214892
0.214076
0.213259
0.212442
0.211624
0.210806
0.209989
0.209172
0.208355
0.20754
0.206727
0.205916
0.205107
0.204302
0.2035
0.202702
0.201909
0.201122
0.200341
0.199566
0.198799
0.19804
0.19729
0.196549
0.195817
0.195096
0.194386
0.193687
0.192999
0.192322
0.191657
0.191002
0.190359
0.189725
0.1891
0.188483
0.187873
0.187268
0.186665
0.186063
0.18546
0.184852
0.184237
0.183612
0.182973
0.182317
0.181641
0.180942
0.180216
0.179461
0.178673
0.17785
0.176989
0.17609
0.17515
0.174169
0.173148
0.172085
0.170983