/*--------------------------------*- C++ -*----------------------------------*\
| =========                 |                                                 |
| \\      /  F ield         | OpenFOAM: The Open Source CFD Toolbox           |
|  \\    /   O peration     | Version:  2.1.1                                 |
|   \\  /    A nd           | Web:      www.OpenFOAM.org                      |
|    \\/     M anipulation  |                                                 |
\*---------------------------------------------------------------------------*/
FoamFile
{
    version     2.0;
    format      ascii;
    class       volScalarField;
    location    "0.16";
    object      nut;
}
// * * * * * * * * * * * * * * * * * * * * * * * * * * * * * * * * * * * * * //

dimensions      [0 2 -1 0 0 0 0];

internalField   nonuniform List<scalar> 
6820
(
4.96025e-05
5.47044e-05
5.94497e-05
6.37667e-05
6.76166e-05
7.09776e-05
7.3848e-05
7.62456e-05
7.82027e-05
7.9761e-05
8.09669e-05
8.18681e-05
8.25107e-05
8.29376e-05
8.31876e-05
8.32946e-05
8.32879e-05
8.31925e-05
8.30292e-05
8.28151e-05
8.25643e-05
8.22881e-05
8.19957e-05
8.16942e-05
8.13893e-05
8.10854e-05
8.07855e-05
8.04927e-05
8.02052e-05
7.99403e-05
7.96189e-05
7.96228e-05
7.80956e-05
0.000540295
0.000304971
0.000219959
0.000171557
0.000140518
0.000119655
0.00010513
9.47467e-05
8.71826e-05
8.16014e-05
7.74529e-05
7.43634e-05
7.20724e-05
7.03936e-05
6.91918e-05
6.83666e-05
6.78425e-05
6.75617e-05
6.74795e-05
6.75608e-05
6.77775e-05
6.81069e-05
6.85304e-05
6.90328e-05
6.96009e-05
7.02237e-05
7.08914e-05
7.15952e-05
7.23274e-05
7.30762e-05
7.38387e-05
7.45805e-05
7.5248e-05
0.00105857
0.000836087
0.000679239
0.000569615
0.000490054
0.000430118
0.000383703
0.000346857
0.000316957
0.000292242
0.000271496
0.000253857
0.000238698
0.000225552
0.000214062
0.000203953
0.000195008
0.000187052
0.000179945
0.000173573
0.000167841
0.000162669
0.00015799
0.000153749
0.000149896
0.000146391
0.000143198
0.000140285
0.000137627
0.000135203
0.000132977
0.000130993
0.000128954
0.00115953
0.00109653
0.00101167
0.000926416
0.00084981
0.000783619
0.000727065
0.000678736
0.000637216
0.000601282
0.000569932
0.000542363
0.000517934
0.000496135
0.000476561
0.000458881
0.000442831
0.000428191
0.000414782
0.000402454
0.00039108
0.000380553
0.000370781
0.000361688
0.000353205
0.000345274
0.000337846
0.000330878
0.000324336
0.000318189
0.000312424
0.000307021
0.000301997
0.00116966
0.00115863
0.00113363
0.00109757
0.00105569
0.0010122
0.000969674
0.000929416
0.000891975
0.000857475
0.000825825
0.000796834
0.000770276
0.000745918
0.000723538
0.000702935
0.000683923
0.000666341
0.000650042
0.000634901
0.000620803
0.000607649
0.00059535
0.000583829
0.000573015
0.000562846
0.000553268
0.00054423
0.00053569
0.00052761
0.000519957
0.000512706
0.00050584
0.00117006
0.00116839
0.00116306
0.00115261
0.00113713
0.00111767
0.00109554
0.00107191
0.00104772
0.0010236
0.001
0.000977193
0.000955326
0.000934483
0.00091469
0.000895942
0.00087821
0.000861453
0.000845624
0.000830671
0.000816543
0.000803188
0.000790555
0.000778598
0.000767271
0.000756532
0.00074634
0.000736659
0.000727454
0.000718693
0.000710348
0.000702398
0.000694819
0.00116996
0.00116938
0.00116821
0.00116569
0.00116123
0.00115458
0.00114584
0.00113528
0.00112328
0.00111024
0.00109649
0.00108234
0.00106803
0.00105374
0.0010396
0.00102572
0.00101218
0.000999022
0.000986281
0.000973976
0.000962116
0.000950701
0.000939729
0.000929189
0.000919071
0.000909361
0.000900044
0.000891105
0.000882528
0.000874298
0.0008664
0.000858824
0.000851557
0.00116994
0.0011694
0.00116883
0.00116803
0.00116674
0.00116472
0.0011618
0.00115791
0.00115304
0.00114729
0.00114074
0.00113354
0.00112582
0.0011177
0.0011093
0.0011007
0.00109201
0.00108328
0.00107458
0.00106596
0.00105744
0.00104906
0.00104085
0.00103282
0.00102498
0.00101734
0.00100991
0.00100269
0.000995674
0.000988873
0.000982281
0.0009759
0.000969726
0.00116994
0.00116939
0.00116886
0.00116832
0.0011677
0.00116692
0.00116588
0.00116449
0.00116269
0.00116043
0.00115772
0.00115456
0.00115098
0.00114702
0.00114273
0.00113815
0.00113335
0.00112835
0.00112321
0.00111796
0.00111264
0.00110728
0.0011019
0.00109653
0.0010912
0.0010859
0.00108067
0.0010755
0.00107042
0.00106542
0.00106052
0.00105573
0.00105104
0.00116994
0.00116938
0.00116885
0.00116833
0.00116782
0.00116729
0.00116671
0.00116605
0.00116526
0.00116432
0.00116319
0.00116185
0.0011603
0.00115853
0.00115654
0.00115435
0.00115197
0.00114942
0.00114672
0.00114388
0.00114092
0.00113787
0.00113473
0.00113154
0.00112829
0.00112501
0.00112172
0.00111841
0.0011151
0.00111181
0.00110853
0.00110529
0.00110207
0.00116994
0.00116938
0.00116884
0.00116832
0.00116782
0.00116732
0.00116683
0.00116634
0.00116582
0.00116527
0.00116466
0.00116399
0.00116324
0.0011624
0.00116146
0.00116042
0.00115928
0.00115803
0.00115669
0.00115525
0.00115372
0.00115211
0.00115043
0.00114868
0.00114688
0.00114502
0.00114312
0.00114118
0.00113922
0.00113724
0.00113524
0.00113323
0.00113122
0.00116994
0.00116938
0.00116884
0.00116832
0.00116781
0.00116732
0.00116684
0.00116637
0.00116591
0.00116545
0.00116499
0.00116451
0.00116402
0.00116351
0.00116296
0.00116238
0.00116176
0.00116109
0.00116038
0.00115963
0.00115883
0.00115798
0.00115709
0.00115615
0.00115518
0.00115417
0.00115312
0.00115204
0.00115094
0.00114981
0.00114867
0.0011475
0.00114632
0.00116994
0.00116938
0.00116884
0.00116832
0.00116781
0.00116732
0.00116684
0.00116637
0.00116592
0.00116547
0.00116504
0.00116461
0.00116419
0.00116377
0.00116334
0.00116292
0.00116248
0.00116203
0.00116157
0.0011611
0.00116061
0.0011601
0.00115958
0.00115903
0.00115847
0.00115789
0.00115729
0.00115668
0.00115605
0.0011554
0.00115474
0.00115407
0.00115339
0.00116994
0.00116938
0.00116884
0.00116832
0.00116781
0.00116731
0.00116683
0.00116637
0.00116591
0.00116547
0.00116504
0.00116462
0.00116421
0.00116381
0.00116342
0.00116304
0.00116265
0.00116228
0.0011619
0.00116153
0.00116115
0.00116077
0.0011604
0.00116001
0.00115963
0.00115924
0.00115884
0.00115844
0.00115803
0.00115762
0.00115721
0.00115679
0.00115636
0.00116994
0.00116938
0.00116884
0.00116832
0.00116781
0.00116731
0.00116683
0.00116636
0.00116591
0.00116547
0.00116504
0.00116462
0.00116421
0.00116381
0.00116343
0.00116305
0.00116268
0.00116232
0.00116197
0.00116163
0.00116129
0.00116095
0.00116062
0.0011603
0.00115998
0.00115966
0.00115934
0.00115903
0.00115871
0.0011584
0.00115809
0.00115779
0.00115748
0.00116994
0.00116938
0.00116884
0.00116831
0.0011678
0.00116731
0.00116683
0.00116636
0.0011659
0.00116546
0.00116503
0.00116461
0.00116421
0.00116381
0.00116342
0.00116305
0.00116268
0.00116233
0.00116198
0.00116164
0.00116131
0.00116099
0.00116067
0.00116036
0.00116006
0.00115977
0.00115948
0.00115919
0.00115892
0.00115864
0.00115837
0.00115811
0.00115785
0.00116994
0.00116938
0.00116884
0.00116831
0.0011678
0.00116731
0.00116683
0.00116636
0.0011659
0.00116546
0.00116503
0.00116461
0.0011642
0.0011638
0.00116342
0.00116304
0.00116268
0.00116232
0.00116197
0.00116164
0.00116131
0.00116099
0.00116068
0.00116037
0.00116007
0.00115979
0.0011595
0.00115923
0.00115896
0.0011587
0.00115844
0.00115819
0.00115795
0.00116994
0.00116938
0.00116884
0.00116831
0.0011678
0.00116731
0.00116682
0.00116635
0.0011659
0.00116545
0.00116502
0.0011646
0.0011642
0.0011638
0.00116341
0.00116304
0.00116267
0.00116231
0.00116197
0.00116163
0.0011613
0.00116098
0.00116067
0.00116036
0.00116007
0.00115978
0.0011595
0.00115923
0.00115896
0.0011587
0.00115845
0.0011582
0.00115796
0.00116994
0.00116938
0.00116884
0.00116831
0.0011678
0.0011673
0.00116682
0.00116635
0.0011659
0.00116545
0.00116502
0.0011646
0.00116419
0.00116379
0.00116341
0.00116303
0.00116266
0.00116231
0.00116196
0.00116162
0.00116129
0.00116097
0.00116066
0.00116035
0.00116006
0.00115977
0.00115949
0.00115922
0.00115895
0.00115869
0.00115844
0.00115819
0.00115795
0.00116994
0.00116938
0.00116884
0.00116831
0.0011678
0.0011673
0.00116682
0.00116635
0.00116589
0.00116545
0.00116502
0.0011646
0.00116419
0.00116379
0.0011634
0.00116303
0.00116266
0.0011623
0.00116195
0.00116161
0.00116128
0.00116096
0.00116065
0.00116035
0.00116005
0.00115976
0.00115948
0.0011592
0.00115894
0.00115868
0.00115842
0.00115818
0.00115794
0.00116994
0.00116938
0.00116884
0.00116831
0.0011678
0.0011673
0.00116682
0.00116635
0.00116589
0.00116545
0.00116502
0.0011646
0.00116419
0.00116379
0.0011634
0.00116302
0.00116265
0.0011623
0.00116195
0.00116161
0.00116128
0.00116096
0.00116064
0.00116034
0.00116004
0.00115975
0.00115947
0.00115919
0.00115893
0.00115866
0.00115841
0.00115816
0.00115792
0.00116994
0.00116938
0.00116884
0.00116831
0.0011678
0.0011673
0.00116682
0.00116635
0.00116589
0.00116545
0.00116501
0.00116459
0.00116418
0.00116378
0.0011634
0.00116302
0.00116265
0.00116229
0.00116194
0.0011616
0.00116127
0.00116095
0.00116064
0.00116033
0.00116003
0.00115974
0.00115946
0.00115918
0.00115891
0.00115865
0.0011584
0.00115815
0.00115791
0.00116994
0.00116938
0.00116884
0.00116831
0.0011678
0.0011673
0.00116682
0.00116635
0.00116589
0.00116545
0.00116501
0.00116459
0.00116418
0.00116378
0.00116339
0.00116301
0.00116265
0.00116229
0.00116194
0.0011616
0.00116127
0.00116094
0.00116063
0.00116032
0.00116002
0.00115973
0.00115945
0.00115917
0.0011589
0.00115864
0.00115839
0.00115814
0.0011579
0.00116994
0.00116938
0.00116884
0.00116831
0.0011678
0.0011673
0.00116682
0.00116635
0.00116589
0.00116544
0.00116501
0.00116459
0.00116418
0.00116378
0.00116339
0.00116301
0.00116264
0.00116228
0.00116193
0.00116159
0.00116126
0.00116094
0.00116062
0.00116032
0.00116002
0.00115973
0.00115944
0.00115917
0.0011589
0.00115863
0.00115838
0.00115813
0.00115788
0.00116994
0.00116938
0.00116884
0.00116831
0.0011678
0.0011673
0.00116682
0.00116635
0.00116589
0.00116544
0.00116501
0.00116459
0.00116418
0.00116378
0.00116339
0.00116301
0.00116264
0.00116228
0.00116193
0.00116159
0.00116126
0.00116093
0.00116062
0.00116031
0.00116001
0.00115972
0.00115943
0.00115916
0.00115889
0.00115862
0.00115837
0.00115812
0.00115787
0.00116994
0.00116938
0.00116884
0.00116831
0.0011678
0.0011673
0.00116682
0.00116635
0.00116589
0.00116544
0.00116501
0.00116459
0.00116418
0.00116378
0.00116339
0.00116301
0.00116264
0.00116228
0.00116193
0.00116159
0.00116125
0.00116093
0.00116061
0.00116031
0.00116001
0.00115971
0.00115943
0.00115915
0.00115888
0.00115861
0.00115836
0.00115811
0.00115786
0.00116994
0.00116938
0.00116884
0.00116831
0.0011678
0.0011673
0.00116682
0.00116635
0.00116589
0.00116544
0.00116501
0.00116459
0.00116417
0.00116377
0.00116338
0.001163
0.00116264
0.00116228
0.00116192
0.00116158
0.00116125
0.00116093
0.00116061
0.0011603
0.00116
0.00115971
0.00115942
0.00115914
0.00115887
0.00115861
0.00115835
0.0011581
0.00115785
0.00116994
0.00116938
0.00116884
0.00116831
0.0011678
0.0011673
0.00116682
0.00116635
0.00116589
0.00116544
0.00116501
0.00116458
0.00116417
0.00116377
0.00116338
0.001163
0.00116263
0.00116227
0.00116192
0.00116158
0.00116125
0.00116092
0.00116061
0.0011603
0.00116
0.0011597
0.00115942
0.00115914
0.00115887
0.0011586
0.00115834
0.00115809
0.00115784
0.00116994
0.00116938
0.00116884
0.00116831
0.0011678
0.0011673
0.00116682
0.00116634
0.00116589
0.00116544
0.00116501
0.00116458
0.00116417
0.00116377
0.00116338
0.001163
0.00116263
0.00116227
0.00116192
0.00116158
0.00116125
0.00116092
0.0011606
0.00116029
0.00115999
0.0011597
0.00115941
0.00115913
0.00115886
0.0011586
0.00115834
0.00115808
0.00115784
0.00116994
0.00116938
0.00116884
0.00116831
0.0011678
0.0011673
0.00116682
0.00116635
0.00116589
0.00116544
0.00116501
0.00116459
0.00116417
0.00116377
0.00116338
0.001163
0.00116263
0.00116227
0.00116192
0.00116158
0.00116125
0.00116092
0.0011606
0.00116029
0.00115999
0.0011597
0.00115941
0.00115913
0.00115886
0.00115859
0.00115833
0.00115808
0.00115783
0.00116994
0.00116938
0.00116884
0.00116831
0.0011678
0.0011673
0.00116682
0.00116635
0.00116589
0.00116544
0.00116501
0.00116459
0.00116418
0.00116378
0.00116339
0.00116301
0.00116264
0.00116228
0.00116192
0.00116158
0.00116125
0.00116092
0.0011606
0.00116029
0.00115999
0.0011597
0.00115941
0.00115913
0.00115885
0.00115859
0.00115832
0.00115807
0.00115782
0.00116994
0.00116938
0.00116884
0.00116831
0.0011678
0.00116731
0.00116682
0.00116635
0.0011659
0.00116545
0.00116502
0.0011646
0.00116418
0.00116378
0.00116339
0.00116301
0.00116264
0.00116228
0.00116193
0.00116158
0.00116125
0.00116092
0.0011606
0.00116029
0.00115998
0.00115968
0.00115939
0.0011591
0.00115882
0.00115854
0.00115827
0.00115801
0.00115775
0.00116994
0.00116938
0.00116884
0.00116831
0.00116781
0.00116731
0.00116683
0.00116636
0.0011659
0.00116546
0.00116503
0.0011646
0.00116419
0.00116379
0.0011634
0.00116301
0.00116264
0.00116227
0.0011619
0.00116155
0.0011612
0.00116086
0.00116052
0.00116019
0.00115986
0.00115953
0.00115921
0.0011589
0.00115858
0.00115827
0.00115797
0.00115767
0.00115737
0.00116994
0.00116938
0.00116884
0.00116833
0.00116782
0.00116733
0.00116685
0.00116638
0.00116593
0.00116548
0.00116503
0.00116459
0.00116416
0.00116373
0.00116331
0.00116288
0.00116246
0.00116204
0.00116161
0.00116119
0.00116076
0.00116033
0.0011599
0.00115946
0.00115902
0.00115858
0.00115814
0.00115769
0.00115724
0.00115678
0.00115632
0.00115586
0.0011554
0.00116994
0.00116939
0.00116886
0.00116835
0.00116784
0.00116733
0.00116683
0.00116632
0.00116581
0.00116528
0.00116473
0.00116417
0.00116358
0.00116297
0.00116233
0.00116166
0.00116096
0.00116024
0.00115949
0.0011587
0.0011579
0.00115706
0.0011562
0.00115532
0.00115441
0.00115349
0.00115254
0.00115158
0.00115061
0.00114962
0.00114862
0.0011476
0.00114659
0.00116995
0.0011694
0.00116886
0.00116828
0.00116765
0.00116694
0.00116612
0.00116519
0.00116413
0.00116294
0.00116162
0.00116017
0.00115859
0.00115688
0.00115506
0.00115314
0.00115111
0.001149
0.0011468
0.00114453
0.0011422
0.00113982
0.0011374
0.00113493
0.00113244
0.00112992
0.00112739
0.00112484
0.00112229
0.00111974
0.0011172
0.00111466
0.00111214
0.00116996
0.00116916
0.00116786
0.00116595
0.00116343
0.0011603
0.00115656
0.00115227
0.00114747
0.00114222
0.00113659
0.00113064
0.00112443
0.00111802
0.00111145
0.00110479
0.00109805
0.00109129
0.00108453
0.00107779
0.0010711
0.00106447
0.00105793
0.00105148
0.00104513
0.00103889
0.00103277
0.00102678
0.0010209
0.00101516
0.00100955
0.00100406
0.000998712
0.00116831
0.00115866
0.00114501
0.00112844
0.0011097
0.00108948
0.00106844
0.00104709
0.00102582
0.0010049
0.000984513
0.000964779
0.000945771
0.000927525
0.000910053
0.000893351
0.000877403
0.000862186
0.000847671
0.000833827
0.000820623
0.000808027
0.000796006
0.000784531
0.000773572
0.0007631
0.000753089
0.000743513
0.000734349
0.000725574
0.000717166
0.000709107
0.000701375
0.00107567
0.000936196
0.000835609
0.000756894
0.000692102
0.000638358
0.000593455
0.000555566
0.000523252
0.000495409
0.000471189
0.00044994
0.000431156
0.000414439
0.000399472
0.000386001
0.000373819
0.000362757
0.000352673
0.000343451
0.000334989
0.000327205
0.000320025
0.000313386
0.000307235
0.000301525
0.000296213
0.000291263
0.000286644
0.000282327
0.000278285
0.000274497
0.00027094
0.000142979
0.000146644
0.000150174
0.000153551
0.000156773
0.000159846
0.000162776
0.000165567
0.000168225
0.000170754
0.000173161
0.000175449
0.000177624
0.00017969
0.000181653
0.000183516
0.000185283
0.000186961
0.000188552
0.00019006
0.00019149
0.000192846
0.000194131
0.000195348
0.000196501
0.000197594
0.000198628
0.000199608
0.000200536
0.000201415
0.000202247
0.000203034
0.00020378
9.0986e-05
0.000110386
0.000133937
0.000162227
0.000194829
0.000230172
0.000266221
0.000301218
0.000334105
0.000364662
0.000393282
0.000420652
0.000447436
0.000474079
0.00050077
0.000527504
0.000554204
0.000580825
0.000607403
0.000634062
0.000660975
0.000688322
0.000716251
0.000744852
0.000774154
0.000804132
0.00083472
0.000865821
0.000897316
0.000929062
0.000960895
0.000992627
0.00102405
0.00105492
0.00108498
0.00111395
0.00114155
0.00116748
0.00119142
0.00121309
0.00123217
0.00124838
0.00126147
0.0012712
0.00127737
0.00127984
0.00127851
0.00127338
0.0012645
0.00125203
0.00123623
0.00121745
0.00119618
0.001173
0.0011486
0.00112377
0.00109934
0.00107618
0.00105515
0.00103702
0.00102246
0.00101193
0.00100575
0.00100397
0.00100651
0.00101311
0.00102343
0.00103712
0.00105387
0.00107345
0.00109573
0.00112071
0.0011485
0.00117926
0.00121318
0.0012504
0.00129092
0.00133458
0.00138095
0.00142933
0.00147875
0.00152797
0.00157554
0.00161991
0.00165944
0.00169254
0.00171773
0.00173374
0.00173956
0.00173453
0.00171845
0.00169162
0.00165492
0.00160994
0.00155903
0.0015052
0.0014524
0.00140381
0.00136716
0.00133043
7.64077e-05
7.85311e-05
8.18784e-05
8.71325e-05
9.50795e-05
0.000106472
0.000121892
0.00014163
0.000165559
0.000193117
0.00022338
0.000255217
0.000287494
0.000319265
0.000349907
0.000379165
0.000407101
0.000433988
0.000460185
0.000486036
0.000511797
0.000537622
0.000563577
0.000589665
0.000615865
0.000642151
0.000668499
0.000694885
0.000721276
0.000747615
0.000773815
0.000799753
0.000825275
0.000850194
0.000874298
0.000897355
0.000919118
0.000939335
0.000957749
0.000974105
0.000988162
0.000999691
0.00100849
0.0010144
0.0010173
0.00101712
0.00101388
0.00100766
0.000998639
0.000987113
0.000973469
0.000958214
0.000941961
0.000925417
0.000909362
0.000894609
0.00088196
0.000872144
0.000865761
0.000863219
0.000864698
0.000870138
0.000879254
0.000891586
0.00090657
0.000923617
0.000942178
0.000961807
0.000982194
0.00100319
0.0010248
0.0010472
0.00107069
0.00109567
0.00112261
0.00115199
0.00118419
0.00121943
0.00125768
0.00129863
0.00134157
0.00138551
0.00142912
0.0014709
0.00150921
0.0015424
0.00156893
0.00158745
0.00159691
0.00159664
0.00158644
0.00156666
0.00153831
0.00150307
0.00146337
0.00142222
0.00138332
0.00134941
0.00132613
0.00130659
0.000126907
0.000124865
0.000122777
0.000120458
0.00011791
0.000115418
0.000113576
0.000112745
0.0001134
0.000116101
0.000121411
0.0001298
0.000141572
0.000156811
0.000175364
0.000196853
0.00022072
0.000246299
0.000272899
0.000299894
0.000326787
0.000353244
0.000379094
0.0004043
0.000428915
0.000453032
0.000476745
0.000500123
0.00052319
0.00054593
0.000568285
0.000590163
0.000611446
0.000631999
0.000651668
0.000670292
0.000687701
0.000703719
0.000718175
0.000730905
0.000741757
0.000750608
0.000757366
0.000761985
0.000764479
0.000764927
0.000763492
0.000760426
0.000756079
0.0007509
0.000745431
0.000740295
0.000736172
0.000733756
0.000733709
0.000736598
0.000742835
0.000752624
0.000765931
0.000782479
0.000801785
0.00082322
0.000846084
0.000869683
0.000893389
0.000916685
0.000939185
0.000960645
0.00098096
0.00100015
0.00101837
0.00103587
0.00105303
0.00107031
0.00108828
0.00110755
0.00112876
0.00115246
0.00117904
0.00120864
0.00124103
0.0012756
0.00131135
0.00134698
0.00138092
0.00141157
0.00143732
0.00145675
0.00146876
0.00147261
0.00146807
0.00145552
0.00143596
0.00141107
0.0013832
0.00135507
0.00132983
0.00130945
0.00129747
0.00129062
0.000296552
0.000290505
0.000284441
0.000278259
0.000271793
0.000264869
0.000257334
0.000249346
0.000241007
0.00023233
0.000223426
0.000214557
0.00020613
0.000198661
0.000192697
0.00018875
0.000187232
0.000188423
0.000192451
0.000199301
0.000208824
0.000220766
0.000234793
0.000250526
0.000267572
0.000285554
0.000304131
0.000323014
0.000341968
0.000360806
0.000379386
0.000397591
0.000415323
0.000432491
0.000449009
0.000464787
0.000479741
0.000493789
0.00050686
0.000518902
0.00052989
0.000539834
0.00054879
0.000556865
0.000564231
0.000571127
0.000577864
0.000584815
0.000592416
0.000601137
0.000611456
0.000623821
0.000638601
0.000656041
0.000676221
0.000699036
0.000724191
0.000751233
0.000779591
0.000808641
0.000837758
0.000866367
0.000893979
0.000920209
0.000944783
0.000967533
0.000988384
0.00100734
0.00102447
0.00103989
0.00105378
0.00106635
0.00107787
0.00108867
0.00109915
0.00110981
0.0011212
0.00113394
0.00114864
0.00116578
0.00118565
0.00120818
0.00123294
0.00125907
0.00128536
0.0013104
0.00133268
0.00135079
0.00136358
0.00137025
0.00137051
0.00136463
0.00135352
0.00133865
0.00132206
0.00130592
0.00129252
0.00128296
0.00127902
0.00127969
0.000498308
0.000490079
0.000482097
0.000474307
0.000466631
0.000458973
0.000451205
0.000443199
0.000434972
0.000426438
0.000417492
0.00040803
0.00039798
0.000387315
0.00037608
0.000364405
0.000352509
0.000340697
0.000329332
0.000318802
0.000309483
0.000301702
0.000295712
0.000291679
0.000289683
0.000289724
0.000291732
0.000295583
0.000301114
0.000308137
0.000316457
0.000325876
0.000336211
0.000347295
0.000358983
0.000371157
0.000383727
0.000396634
0.00040985
0.000423382
0.000437271
0.000451597
0.000466475
0.000482055
0.000498518
0.000516061
0.000534891
0.0005552
0.000577147
0.000600832
0.000626277
0.000653408
0.000682051
0.000711932
0.000742695
0.000773925
0.000805176
0.000836007
0.000866007
0.00089482
0.000922159
0.000947813
0.000971644
0.000993584
0.00101362
0.00103179
0.00104817
0.00106286
0.00107596
0.00108761
0.00109794
0.00110707
0.00111516
0.00112237
0.00112888
0.00113492
0.0011408
0.00114689
0.00115365
0.00116159
0.00117117
0.00118277
0.00119648
0.00121208
0.00122897
0.00124623
0.00126273
0.00127726
0.00128875
0.00129641
0.00129985
0.00129919
0.00129507
0.00128859
0.00128122
0.0012744
0.00126954
0.00126695
0.00126734
0.0012709
0.000686449
0.000677275
0.000668392
0.000659787
0.000651431
0.000643282
0.000635285
0.000627389
0.000619562
0.000611763
0.000603943
0.000596052
0.000588032
0.000579825
0.000571375
0.000562636
0.000553579
0.000544201
0.000534533
0.000524644
0.000514647
0.000504688
0.000494948
0.000485629
0.000476943
0.0004691
0.000462295
0.000456703
0.000452468
0.000449703
0.000448487
0.000448867
0.000450867
0.000454487
0.000459716
0.000466531
0.000474909
0.000484828
0.00049627
0.000509223
0.000523682
0.000539647
0.000557115
0.000576082
0.00059653
0.00061842
0.000641688
0.000666235
0.000691921
0.000718565
0.000745948
0.000773813
0.000801882
0.000829861
0.000857459
0.000884399
0.000910431
0.000935341
0.000958957
0.000981153
0.00100185
0.001021
0.00103861
0.00105471
0.00106935
0.00108261
0.00109457
0.00110533
0.00111498
0.00112363
0.00113137
0.0011383
0.00114451
0.00115007
0.00115506
0.00115957
0.00116369
0.00116755
0.00117132
0.00117525
0.00117964
0.00118485
0.00119119
0.00119882
0.0012077
0.00121752
0.00122771
0.00123752
0.00124617
0.00125301
0.00125764
0.00125999
0.00126038
0.00125943
0.00125798
0.00125675
0.00125644
0.00125696
0.00125857
0.00126197
0.000843466
0.00083452
0.000825781
0.000817253
0.00080893
0.000800807
0.000792861
0.00078509
0.000777481
0.000770022
0.0007627
0.000755504
0.000748422
0.000741442
0.000734549
0.000727725
0.000720953
0.000714217
0.000707506
0.000700817
0.000694158
0.000687554
0.000681046
0.000674694
0.000668577
0.000662789
0.000657443
0.000652659
0.000648567
0.000645298
0.00064298
0.000641735
0.000641675
0.000642898
0.000645488
0.000649511
0.000655016
0.000662038
0.000670589
0.000680668
0.000692255
0.000705311
0.000719779
0.000735579
0.000752614
0.000770762
0.000789883
0.000809814
0.000830377
0.000851379
0.000872618
0.000893889
0.00091499
0.000935728
0.000955927
0.00097543
0.000994106
0.00101185
0.00102858
0.00104425
0.00105884
0.00107234
0.00108476
0.00109614
0.00110652
0.00111597
0.00112453
0.00113229
0.00113931
0.00114567
0.00115144
0.0011567
0.00116153
0.00116599
0.00117014
0.00117404
0.00117772
0.00118122
0.00118458
0.00118783
0.00119105
0.00119437
0.00119795
0.00120196
0.00120654
0.00121172
0.00121737
0.00122321
0.00122888
0.00123397
0.00123817
0.00124133
0.00124352
0.00124495
0.00124595
0.00124677
0.00124771
0.0012486
0.00124967
0.00125177
0.000962784
0.00095502
0.000947342
0.000939763
0.000932294
0.000924941
0.000917707
0.000910596
0.000903613
0.00089676
0.000890043
0.00088347
0.000877049
0.000870788
0.000864698
0.000858786
0.00085306
0.000847526
0.000842188
0.000837054
0.000832131
0.000827428
0.000822961
0.000818752
0.000814828
0.000811228
0.000807996
0.000805189
0.000802868
0.000801104
0.000799969
0.000799541
0.000799895
0.000801105
0.000803238
0.000806352
0.000810494
0.000815701
0.00082199
0.000829368
0.00083782
0.000847317
0.000857808
0.00086923
0.000881498
0.000894514
0.000908166
0.00092233
0.000936874
0.000951662
0.000966554
0.000981414
0.000996112
0.00101053
0.00102455
0.00103808
0.00105105
0.00106339
0.00107506
0.00108602
0.00109625
0.00110576
0.00111455
0.00112264
0.00113005
0.00113681
0.00114297
0.00114856
0.00115363
0.00115824
0.00116244
0.0011663
0.00116988
0.00117324
0.00117645
0.00117958
0.00118269
0.0011858
0.00118896
0.00119217
0.00119541
0.00119868
0.00120198
0.00120532
0.00120876
0.00121233
0.00121603
0.00121981
0.00122355
0.0012271
0.00123027
0.00123295
0.00123507
0.00123664
0.00123775
0.00123844
0.00123891
0.00123906
0.00123921
0.00124025
0.0010457
0.00103966
0.0010336
0.00102755
0.0010215
0.00101548
0.00100949
0.00100354
0.000997652
0.000991826
0.000986076
0.000980416
0.000974862
0.000969429
0.000964135
0.000958996
0.00095403
0.000949253
0.000944684
0.000940336
0.000936227
0.000932373
0.000928788
0.000925492
0.000922503
0.000919843
0.000917536
0.000915611
0.000914098
0.000913032
0.00091245
0.00091239
0.000912892
0.000913995
0.000915733
0.000918141
0.000921244
0.000925061
0.000929604
0.000934873
0.000940859
0.000947538
0.000954879
0.000962837
0.000971356
0.000980371
0.000989807
0.000999583
0.00100961
0.00101981
0.00103008
0.00104034
0.00105051
0.00106051
0.00107026
0.00107971
0.0010888
0.00109749
0.00110574
0.00111354
0.00112085
0.00112768
0.00113402
0.00113988
0.00114526
0.00115017
0.00115464
0.00115869
0.00116235
0.00116566
0.00116864
0.00117135
0.00117383
0.00117614
0.00117835
0.00118053
0.00118273
0.00118503
0.00118748
0.00119012
0.00119296
0.00119599
0.00119917
0.00120245
0.00120578
0.0012091
0.00121235
0.0012155
0.00121847
0.00122118
0.00122355
0.00122549
0.00122694
0.00122787
0.00122833
0.00122832
0.00122808
0.00122764
0.0012273
0.00122816
0.00109837
0.00109412
0.00108979
0.00108541
0.00108097
0.00107649
0.00107197
0.00106744
0.00106289
0.00105834
0.00105381
0.0010493
0.00104484
0.00104043
0.0010361
0.00103186
0.00102773
0.00102374
0.00101989
0.00101621
0.00101272
0.00100943
0.00100637
0.00100355
0.00100099
0.000998713
0.000996734
0.000995075
0.000993756
0.000992796
0.000992218
0.000992043
0.000992291
0.000992983
0.000994138
0.00099577
0.000997892
0.00100051
0.00100364
0.00100726
0.00101137
0.00101596
0.001021
0.00102646
0.00103231
0.0010385
0.00104499
0.00105173
0.00105865
0.00106571
0.00107284
0.00108
0.00108711
0.00109414
0.00110104
0.00110775
0.00111425
0.0011205
0.00112647
0.00113214
0.0011375
0.00114251
0.00114719
0.00115152
0.0011555
0.00115914
0.00116244
0.00116541
0.00116806
0.00117041
0.00117249
0.00117432
0.00117593
0.00117738
0.00117871
0.00117998
0.00118124
0.00118258
0.00118405
0.00118572
0.00118764
0.00118983
0.00119229
0.00119498
0.00119784
0.0012008
0.00120374
0.00120656
0.00120918
0.00121148
0.0012134
0.00121487
0.00121584
0.00121631
0.00121635
0.00121603
0.0012156
0.00121516
0.00121497
0.00121644
0.00112887
0.00112614
0.00112332
0.00112041
0.00111742
0.00111437
0.00111125
0.00110807
0.00110484
0.00110158
0.00109828
0.00109497
0.00109165
0.00108833
0.00108504
0.00108178
0.00107857
0.00107542
0.00107236
0.0010694
0.00106656
0.00106386
0.0010613
0.00105892
0.00105673
0.00105474
0.00105297
0.00105145
0.00105018
0.00104918
0.00104847
0.00104807
0.00104798
0.00104822
0.0010488
0.00104974
0.00105103
0.00105268
0.00105469
0.00105706
0.00105979
0.00106285
0.00106624
0.00106994
0.00107392
0.00107815
0.00108261
0.00108727
0.00109208
0.00109701
0.00110202
0.00110707
0.00111213
0.00111716
0.00112213
0.001127
0.00113175
0.00113634
0.00114076
0.00114498
0.00114899
0.00115276
0.00115629
0.00115957
0.00116259
0.00116533
0.00116781
0.00117002
0.00117196
0.00117364
0.00117508
0.00117628
0.00117727
0.00117808
0.00117875
0.0011793
0.0011798
0.00118031
0.00118087
0.00118156
0.00118244
0.00118356
0.00118495
0.00118661
0.00118853
0.00119064
0.00119286
0.00119509
0.00119721
0.0011991
0.00120069
0.00120189
0.00120269
0.00120309
0.00120318
0.00120305
0.00120296
0.00120303
0.00120339
0.00120586
0.00114493
0.00114328
0.00114156
0.00113977
0.0011379
0.00113596
0.00113396
0.00113189
0.00112976
0.00112758
0.00112535
0.00112308
0.00112079
0.00111846
0.00111613
0.00111379
0.00111146
0.00110915
0.00110687
0.00110464
0.00110247
0.00110037
0.00109836
0.00109646
0.00109467
0.00109302
0.00109152
0.00109018
0.00108902
0.00108805
0.00108728
0.00108674
0.00108642
0.00108634
0.00108651
0.00108693
0.00108761
0.00108856
0.00108978
0.00109126
0.001093
0.00109499
0.00109723
0.00109971
0.0011024
0.00110529
0.00110836
0.0011116
0.00111497
0.00111845
0.00112202
0.00112565
0.00112931
0.00113298
0.00113664
0.00114025
0.0011438
0.00114726
0.00115061
0.00115383
0.00115691
0.00115982
0.00116256
0.0011651
0.00116744
0.00116957
0.00117147
0.00117315
0.0011746
0.00117582
0.00117682
0.0011776
0.00117817
0.00117855
0.00117876
0.00117883
0.00117879
0.00117869
0.00117858
0.00117851
0.00117853
0.00117871
0.00117908
0.00117969
0.00118054
0.00118162
0.00118289
0.00118427
0.00118567
0.00118701
0.00118821
0.00118918
0.00118993
0.00119044
0.00119082
0.00119113
0.00119161
0.00119235
0.00119338
0.00119687
0.00115258
0.00115161
0.00115059
0.00114952
0.0011484
0.00114722
0.00114599
0.0011447
0.00114337
0.00114198
0.00114056
0.00113909
0.00113758
0.00113605
0.00113448
0.0011329
0.00113131
0.00112971
0.00112811
0.00112653
0.00112497
0.00112344
0.00112196
0.00112053
0.00111917
0.00111789
0.0011167
0.00111561
0.00111464
0.00111379
0.00111308
0.00111251
0.00111211
0.00111187
0.00111181
0.00111193
0.00111224
0.00111274
0.00111344
0.00111433
0.00111543
0.00111671
0.00111818
0.00111984
0.00112167
0.00112366
0.0011258
0.00112808
0.00113049
0.00113299
0.00113559
0.00113826
0.00114098
0.00114372
0.00114649
0.00114924
0.00115197
0.00115465
0.00115726
0.00115979
0.00116223
0.00116454
0.00116672
0.00116875
0.00117062
0.00117232
0.00117383
0.00117514
0.00117626
0.00117717
0.00117787
0.00117837
0.00117866
0.00117877
0.0011787
0.00117846
0.00117809
0.00117762
0.00117707
0.00117649
0.00117593
0.00117544
0.00117506