/*--------------------------------*- C++ -*----------------------------------*\
| =========                 |                                                 |
| \\      /  F ield         | OpenFOAM: The Open Source CFD Toolbox           |
|  \\    /   O peration     | Version:  2.1.1                                 |
|   \\  /    A nd           | Web:      www.OpenFOAM.org                      |
|    \\/     M anipulation  |                                                 |
\*---------------------------------------------------------------------------*/
FoamFile
{
    version     2.0;
    format      ascii;
    class       volScalarField;
    location    "0.16";
    object      p;
}
// * * * * * * * * * * * * * * * * * * * * * * * * * * * * * * * * * * * * * //

dimensions      [0 2 -2 0 0 0 0];

internalField   nonuniform List<scalar> 
6820
(
-10.4993
-12.3456
-12.9206
-13.0485
-13.1557
-13.235
-13.2896
-13.3362
-13.3788
-13.418
-13.4545
-13.4891
-13.522
-13.5533
-13.5832
-13.6119
-13.6395
-13.666
-13.6916
-13.7163
-13.7403
-13.7637
-13.7864
-13.8085
-13.8299
-13.8506
-13.8703
-13.8886
-13.9045
-13.9169
-13.9216
-13.9123
-13.8766
-14.4518
-13.9172
-13.4947
-13.3048
-13.2803
-13.2917
-13.312
-13.3401
-13.3725
-13.406
-13.4397
-13.4731
-13.5056
-13.5372
-13.5678
-13.5972
-13.6256
-13.6529
-13.6793
-13.7048
-13.7296
-13.7536
-13.777
-13.7998
-13.8219
-13.8435
-13.8643
-13.8843
-13.9032
-13.9226
-13.9408
-13.98
-14.0322
-12.8093
-12.5055
-12.7922
-13.0373
-13.1424
-13.2179
-13.2771
-13.3265
-13.3707
-13.411
-13.4483
-13.4833
-13.5163
-13.5476
-13.5775
-13.6061
-13.6335
-13.6599
-13.6854
-13.7101
-13.734
-13.7574
-13.7802
-13.8025
-13.8243
-13.8457
-13.8666
-13.8872
-13.9075
-13.9286
-13.951
-13.9811
-14.0157
-13.3162
-13.3506
-13.3479
-13.2887
-13.2811
-13.3017
-13.3282
-13.3572
-13.3882
-13.4197
-13.4511
-13.482
-13.5122
-13.5417
-13.5703
-13.5981
-13.6251
-13.6513
-13.6767
-13.7015
-13.7257
-13.7493
-13.7725
-13.7952
-13.8175
-13.8396
-13.8614
-13.8833
-13.9055
-13.9294
-13.9555
-13.991
-14.033
-13.1608
-13.0608
-13.105
-13.1711
-13.2242
-13.2708
-13.3117
-13.3492
-13.3852
-13.4198
-13.4529
-13.4848
-13.5156
-13.5452
-13.5738
-13.6015
-13.6282
-13.654
-13.6791
-13.7036
-13.7274
-13.7508
-13.7737
-13.7962
-13.8185
-13.8406
-13.8627
-13.8851
-13.9083
-13.9332
-13.9608
-13.9943
-14.0328
-13.2159
-13.1992
-13.2244
-13.2476
-13.27
-13.2995
-13.3311
-13.3629
-13.3948
-13.4264
-13.4573
-13.4874
-13.5168
-13.5453
-13.573
-13.5999
-13.626
-13.6514
-13.6762
-13.7004
-13.7241
-13.7473
-13.7702
-13.7928
-13.8152
-13.8376
-13.8602
-13.8832
-13.9071
-13.9327
-13.9607
-13.9931
-14.0291
-13.214
-13.1929
-13.2088
-13.2377
-13.2679
-13.3009
-13.3339
-13.3661
-13.3978
-13.4289
-13.4594
-13.489
-13.5179
-13.546
-13.5733
-13.5998
-13.6256
-13.6507
-13.6752
-13.6992
-13.7227
-13.7458
-13.7686
-13.7912
-13.8136
-13.8361
-13.8588
-13.8821
-13.9063
-13.932
-13.9596
-13.9901
-14.0231
-13.2281
-13.2204
-13.2358
-13.2604
-13.2857
-13.314
-13.3437
-13.3735
-13.4034
-13.4332
-13.4624
-13.491
-13.5191
-13.5464
-13.573
-13.599
-13.6243
-13.6491
-13.6732
-13.6969
-13.7202
-13.7431
-13.7658
-13.7883
-13.8107
-13.8332
-13.856
-13.8793
-13.9035
-13.9288
-13.9557
-13.9846
-14.0149
-13.241
-13.2371
-13.2493
-13.2709
-13.295
-13.3219
-13.3504
-13.3791
-13.4079
-13.4366
-13.4649
-13.4927
-13.52
-13.5467
-13.5728
-13.5982
-13.6231
-13.6475
-13.6713
-13.6947
-13.7178
-13.7405
-13.763
-13.7853
-13.8076
-13.83
-13.8527
-13.8759
-13.8998
-13.9246
-13.9505
-13.9777
-14.0057
-13.2545
-13.2539
-13.2653
-13.2848
-13.307
-13.3318
-13.3584
-13.3855
-13.4129
-13.4404
-13.4677
-13.4946
-13.521
-13.547
-13.5725
-13.5974
-13.6218
-13.6457
-13.6692
-13.6923
-13.715
-13.7374
-13.7597
-13.7818
-13.8039
-13.8262
-13.8486
-13.8715
-13.8949
-13.919
-13.9439
-13.9695
-13.9955
-13.268
-13.269
-13.2794
-13.297
-13.3175
-13.3407
-13.3657
-13.3915
-13.4177
-13.444
-13.4703
-13.4963
-13.522
-13.5473
-13.5721
-13.5965
-13.6204
-13.6438
-13.6669
-13.6896
-13.712
-13.7342
-13.7561
-13.778
-13.7998
-13.8218
-13.8439
-13.8663
-13.8891
-13.9124
-13.9362
-13.9604
-13.9847
-13.2812
-13.2831
-13.293
-13.3089
-13.328
-13.3496
-13.3731
-13.3975
-13.4225
-13.4477
-13.473
-13.4981
-13.523
-13.5475
-13.5717
-13.5955
-13.6189
-13.6419
-13.6645
-13.6868
-13.7088
-13.7306
-13.7523
-13.7738
-13.7953
-13.8168
-13.8385
-13.8604
-13.8825
-13.905
-13.9277
-13.9506
-13.9734
-13.2939
-13.2963
-13.3056
-13.3202
-13.338
-13.3582
-13.3802
-13.4033
-13.4271
-13.4513
-13.4756
-13.4998
-13.5239
-13.5477
-13.5713
-13.5944
-13.6173
-13.6398
-13.662
-13.6838
-13.7055
-13.7269
-13.7481
-13.7692
-13.7903
-13.8114
-13.8325
-13.8538
-13.8752
-13.8968
-13.9185
-13.9401
-13.9616
-13.3061
-13.3087
-13.3175
-13.331
-13.3475
-13.3664
-13.3871
-13.409
-13.4317
-13.4548
-13.4781
-13.5015
-13.5248
-13.5479
-13.5707
-13.5933
-13.6156
-13.6376
-13.6592
-13.6807
-13.7018
-13.7228
-13.7436
-13.7643
-13.7849
-13.8055
-13.826
-13.8467
-13.8673
-13.888
-13.9086
-13.9291
-13.9494
-13.3177
-13.3203
-13.3286
-13.3411
-13.3565
-13.3742
-13.3937
-13.4144
-13.436
-13.4581
-13.4805
-13.5031
-13.5256
-13.5479
-13.5701
-13.5921
-13.6138
-13.6352
-13.6564
-13.6773
-13.698
-13.7185
-13.7388
-13.759
-13.7791
-13.7991
-13.819
-13.8389
-13.8588
-13.8786
-13.8983
-13.9177
-13.9369
-13.3286
-13.3311
-13.3389
-13.3506
-13.3649
-13.3815
-13.4
-13.4196
-13.4402
-13.4613
-13.4828
-13.5045
-13.5262
-13.5478
-13.5694
-13.5907
-13.6118
-13.6327
-13.6533
-13.6737
-13.6939
-13.7139
-13.7337
-13.7534
-13.7729
-13.7923
-13.8116
-13.8307
-13.8498
-13.8687
-13.8874
-13.9059
-13.924
-13.3387
-13.3412
-13.3486
-13.3594
-13.3729
-13.3885
-13.4058
-13.4245
-13.4441
-13.4643
-13.4849
-13.5057
-13.5267
-13.5476
-13.5685
-13.5892
-13.6097
-13.63
-13.6501
-13.6699
-13.6896
-13.709
-13.7283
-13.7474
-13.7663
-13.785
-13.8036
-13.8221
-13.8403
-13.8584
-13.8762
-13.8937
-13.9108
-13.3482
-13.3505
-13.3574
-13.3676
-13.3802
-13.3949
-13.4113
-13.429
-13.4477
-13.467
-13.4868
-13.5068
-13.527
-13.5472
-13.5674
-13.5875
-13.6074
-13.6271
-13.6466
-13.6659
-13.685
-13.7039
-13.7226
-13.7411
-13.7593
-13.7774
-13.7953
-13.813
-13.8305
-13.8477
-13.8646
-13.8811
-13.8973
-13.3569
-13.3591
-13.3656
-13.3751
-13.387
-13.4008
-13.4164
-13.4332
-13.4509
-13.4694
-13.4884
-13.5076
-13.5271
-13.5466
-13.5661
-13.5856
-13.6049
-13.624
-13.6429
-13.6616
-13.6802
-13.6985
-13.7165
-13.7344
-13.752
-13.7694
-13.7866
-13.8035
-13.8202
-13.8366
-13.8526
-13.8683
-13.8835
-13.3648
-13.3669
-13.373
-13.382
-13.3931
-13.4062
-13.4209
-13.4369
-13.4538
-13.4715
-13.4897
-13.5082
-13.527
-13.5458
-13.5647
-13.5835
-13.6021
-13.6207
-13.639
-13.6571
-13.6751
-13.6928
-13.7102
-13.7274
-13.7444
-13.7611
-13.7776
-13.7937
-13.8096
-13.8251
-13.8403
-13.8551
-13.8695
-13.3718
-13.3738
-13.3796
-13.3881
-13.3986
-13.411
-13.4249
-13.4401
-13.4563
-13.4732
-13.4907
-13.5085
-13.5266
-13.5447
-13.5629
-13.5811
-13.5992
-13.6171
-13.6348
-13.6524
-13.6697
-13.6868
-13.7036
-13.7202
-13.7365
-13.7525
-13.7682
-13.7836
-13.7987
-13.8134
-13.8278
-13.8417
-13.8553
-13.3781
-13.38
-13.3854
-13.3934
-13.4034
-13.4151
-13.4284
-13.4429
-13.4583
-13.4745
-13.4913
-13.5085
-13.5258
-13.5434
-13.561
-13.5785
-13.596
-13.6133
-13.6304
-13.6474
-13.6641
-13.6805
-13.6967
-13.7127
-13.7283
-13.7436
-13.7586
-13.7732
-13.7875
-13.8015
-13.815
-13.8281
-13.8408
-13.3835
-13.3853
-13.3905
-13.398
-13.4074
-13.4186
-13.4313
-13.4451
-13.4599
-13.4755
-13.4916
-13.5081
-13.5248
-13.5418
-13.5587
-13.5757
-13.5925
-13.6093
-13.6258
-13.6422
-13.6583
-13.6741
-13.6896
-13.7049
-13.7198
-13.7345
-13.7487
-13.7626
-13.7762
-13.7893
-13.802
-13.8143
-13.8262
-13.3881
-13.3898
-13.3946
-13.4018
-13.4108
-13.4214
-13.4335
-13.4467
-13.4609
-13.4758
-13.4913
-13.5072
-13.5234
-13.5397
-13.5561
-13.5725
-13.5888
-13.6049
-13.6209
-13.6366
-13.6521
-13.6673
-13.6823
-13.6969
-13.7111
-13.7251
-13.7386
-13.7518
-13.7646
-13.7769
-13.7889
-13.8004
-13.8115
-13.3917
-13.3933
-13.398
-13.4048
-13.4133
-13.4235
-13.4351
-13.4478
-13.4615
-13.4759
-13.4908
-13.5062
-13.5218
-13.5375
-13.5534
-13.5692
-13.5849
-13.6005
-13.6158
-13.631
-13.6459
-13.6605
-13.6748
-13.6887
-13.7023
-13.7156
-13.7284
-13.7409
-13.7529
-13.7645
-13.7757
-13.7864
-13.7967
-13.3944
-13.3959
-13.4003
-13.4068
-13.4149
-13.4246
-13.4357
-13.448
-13.4611
-13.475
-13.4894
-13.5043
-13.5194
-13.5346
-13.55
-13.5652
-13.5804
-13.5955
-13.6103
-13.6249
-13.6392
-13.6532
-13.6669
-13.6802
-13.6932
-13.7058
-13.718
-13.7297
-13.741
-13.7519
-13.7624
-13.7724
-13.7819
-13.3962
-13.3977
-13.4019
-13.4082
-13.416
-13.4255
-13.4363
-13.4481
-13.4609
-13.4743
-13.4883
-13.5027
-13.5173
-13.532
-13.5468
-13.5616
-13.5763
-13.5908
-13.605
-13.6191
-13.6328
-13.6462
-13.6593
-13.672
-13.6843
-13.6962
-13.7077
-13.7187
-13.7294
-13.7395
-13.7492
-13.7585
-13.7672
-13.3969
-13.3982
-13.402
-13.4078
-13.4152
-13.4242
-13.4345
-13.446
-13.4584
-13.4715
-13.4851
-13.4992
-13.5134
-13.5278
-13.5422
-13.5566
-13.5708
-13.5849
-13.5987
-13.6122
-13.6255
-13.6384
-13.6509
-13.663
-13.6748
-13.6861
-13.6969
-13.7074
-13.7173
-13.7268
-13.7359
-13.7444
-13.7525
-13.3968
-13.3983
-13.4024
-13.4083
-13.4158
-13.4247
-13.4349
-13.4461
-13.4582
-13.471
-13.4842
-13.4978
-13.5116
-13.5255
-13.5394
-13.5532
-13.5669
-13.5804
-13.5937
-13.6066
-13.6193
-13.6316
-13.6435
-13.655
-13.6661
-13.6768
-13.687
-13.6967
-13.706
-13.7148
-13.7232
-13.731
-13.7384
-13.395
-13.3956
-13.3984
-13.4033
-13.41
-13.4184
-13.4284
-13.4395
-13.4515
-13.4643
-13.4775
-13.4911
-13.5049
-13.5187
-13.5325
-13.5462
-13.5597
-13.573
-13.586
-13.5986
-13.6109
-13.6229
-13.6344
-13.6454
-13.6561
-13.6663
-13.676
-13.6852
-13.6939
-13.7022
-13.7099
-13.7172
-13.724
-13.3941
-13.3966
-13.4011
-13.4069
-13.4141
-13.4226
-13.4323
-13.4431
-13.4546
-13.4667
-13.4793
-13.4922
-13.5053
-13.5184
-13.5315
-13.5445
-13.5573
-13.5699
-13.5822
-13.5942
-13.6058
-13.6171
-13.6279
-13.6383
-13.6483
-13.6578
-13.6668
-13.6754
-13.6834
-13.691
-13.6981
-13.7047
-13.7107
-13.3862
-13.3842
-13.3844
-13.3879
-13.3945
-13.4033
-13.4138
-13.4255
-13.4382
-13.4514
-13.465
-13.4788
-13.4927
-13.5065
-13.5202
-13.5336
-13.5468
-13.5596
-13.572
-13.5841
-13.5957
-13.6069
-13.6176
-13.6278
-13.6376
-13.6468
-13.6555
-13.6637
-13.6714
-13.6786
-13.6852
-13.6913
-13.6969
-13.3936
-13.4001
-13.4057
-13.4107
-13.4163
-13.4235
-13.4321
-13.4417
-13.4523
-13.4636
-13.4753
-13.4874
-13.4996
-13.5119
-13.5241
-13.5363
-13.5482
-13.5599
-13.5713
-13.5824
-13.593
-13.6033
-13.6132
-13.6226
-13.6315
-13.6399
-13.6479
-13.6554
-13.6623
-13.6688
-13.6747
-13.6801
-13.685
-13.3617
-13.3482
-13.3432
-13.3483
-13.3581
-13.3705
-13.3844
-13.3992
-13.4145
-13.43
-13.4455
-13.4607
-13.4757
-13.4904
-13.5046
-13.5184
-13.5318
-13.5446
-13.557
-13.5688
-13.5801
-13.5909
-13.6011
-13.6107
-13.6198
-13.6284
-13.6363
-13.6438
-13.6506
-13.6569
-13.6627
-13.6679
-13.6725
-13.4153
-13.4356
-13.4399
-13.4352
-13.4326
-13.4347
-13.4397
-13.4465
-13.4548
-13.4641
-13.4743
-13.4849
-13.4959
-13.5071
-13.5182
-13.5293
-13.5403
-13.551
-13.5615
-13.5716
-13.5813
-13.5907
-13.5996
-13.6081
-13.6161
-13.6236
-13.6306
-13.6371
-13.6431
-13.6486
-13.6535
-13.658
-13.6619
-13.2925
-13.243
-13.2311
-13.2571
-13.2849
-13.3091
-13.3327
-13.3556
-13.3774
-13.398
-13.4176
-13.4361
-13.4537
-13.4704
-13.4862
-13.5012
-13.5154
-13.5289
-13.5417
-13.5538
-13.5652
-13.5759
-13.586
-13.5954
-13.6042
-13.6123
-13.6198
-13.6268
-13.633
-13.6387
-13.6438
-13.6483
-13.6522
-13.5406
-13.5755
-13.5445
-13.5018
-13.473
-13.4618
-13.4588
-13.4594
-13.463
-13.4688
-13.4762
-13.4846
-13.4937
-13.5032
-13.513
-13.5229
-13.5327
-13.5424
-13.5518
-13.561
-13.5699
-13.5784
-13.5865
-13.5941
-13.6013
-13.6081
-13.6143
-13.6201
-13.6253
-13.6301
-13.6343
-13.6381
-13.6414
-13.0484
-12.9287
-12.991
-13.0924
-13.1662
-13.2179
-13.2614
-13.2994
-13.3324
-13.3614
-13.3874
-13.4108
-13.4321
-13.4517
-13.4698
-13.4865
-13.502
-13.5165
-13.53
-13.5425
-13.5542
-13.5651
-13.5752
-13.5846
-13.5932
-13.6012
-13.6084
-13.615
-13.6209
-13.6262
-13.6308
-13.6348
-13.6381
-14.2628
-13.9239
-13.6601
-13.5429
-13.4927
-13.4673
-13.452
-13.4456
-13.4456
-13.4493
-13.4556
-13.4635
-13.4725
-13.4822
-13.4922
-13.5024
-13.5126
-13.5226
-13.5324
-13.5419
-13.551
-13.5598
-13.5681
-13.5759
-13.5832
-13.59
-13.5963
-13.6021
-13.6074
-13.6121
-13.6163
-13.6199
-13.6231
-11.7592
-12.4658
-12.8703
-13.0226
-13.1271
-13.2093
-13.2686
-13.3134
-13.3497
-13.3797
-13.4052
-13.4274
-13.4471
-13.465
-13.4813
-13.4963
-13.5102
-13.5232
-13.5352
-13.5465
-13.557
-13.5668
-13.5758
-13.5842
-13.5919
-13.599
-13.6054
-13.6112
-13.6164
-13.621
-13.625
-13.6284
-13.6312
-13.7665
-14.0114
-14.1476
-14.2373
-14.3005
-14.346
-14.3817
-14.4175
-14.456
-14.5002
-14.5504
-14.6058
-14.6659
-14.7291
-14.7939
-14.8589
-14.9226
-14.984
-15.0419
-15.0957
-15.1445
-15.1879
-15.2254
-15.2566
-15.281
-15.2981
-15.3074
-15.3081
-15.2994
-15.2806
-15.2505
-15.2081
-15.1524
-15.0823
-14.9968
-14.8946
-14.7749
-14.6367
-14.4791
-14.3013
-14.1026
-13.8825
-13.6405
-13.3763
-13.0898
-12.7812
-12.4509
-12.0994
-11.7276
-11.3367
-10.9281
-10.5036
-10.0651
-9.615
-9.15565
-8.68972
-8.22
-7.74939
-7.28082
-6.81721
-6.3614
-5.91613
-5.48396
-5.06721
-4.66797
-4.28799
-3.92872
-3.59126
-3.27638
-2.98452
-2.71579
-2.47001
-2.24676
-2.04535
-1.86489
-1.70432
-1.56243
-1.43787
-1.32918
-1.23482
-1.15317
-1.08257
-1.02131
-0.967653
-0.919877
-0.876271
-0.835182
-0.795012
-0.754296
-0.71166
-0.66598
-0.616244
-0.561782
-0.502245
-0.436941
-0.367814
-0.289717
-0.217919
-0.113286
-0.0814079
-14.3608
-14.4973
-14.436
-14.3684
-14.3404
-14.3213
-14.3146
-14.3271
-14.3534
-14.3959
-14.4514
-14.516
-14.5869
-14.6608
-14.7349
-14.8071
-14.8755
-14.9393
-14.9976
-15.0504
-15.0973
-15.1385
-15.1736
-15.2025
-15.2249
-15.2401
-15.2477
-15.2468
-15.2366
-15.2162
-15.1846
-15.1409
-15.0839
-15.0127
-14.9261
-14.8231
-14.7028
-14.5643
-14.4066
-14.229
-14.0309
-13.8117
-13.571
-13.3086
-13.0243
-12.7183
-12.391
-12.0431
-11.6752
-11.2888
-10.885
-10.4657
-10.0327
-9.5883
-9.13482
-8.67483
-8.21107
-7.74633
-7.28348
-6.82536
-6.37477
-5.93439
-5.50672
-5.09407
-4.69844
-4.32158
-3.96491
-3.62951
-3.31613
-3.02523
-2.75692
-2.51107
-2.28725
-2.08484
-1.90298
-1.74068
-1.59677
-1.46997
-1.35889
-1.26205
-1.17788
-1.10478
-1.04107
-0.985071
-0.935072
-0.889388
-0.846372
-0.804441
-0.762116
-0.718052
-0.67106
-0.620248
-0.564673
-0.504532
-0.437954
-0.369343
-0.288324
-0.221326
-0.105199
-0.0981986
-14.0698
-14.0768
-14.099
-14.1503
-14.206
-14.2539
-14.2937
-14.33
-14.3681
-14.4105
-14.4568
-14.5077
-14.5631
-14.6221
-14.6833
-14.7455
-14.8074
-14.8678
-14.9253
-14.979
-15.0278
-15.071
-15.1079
-15.138
-15.1609
-15.176
-15.1828
-15.1807
-15.169
-15.147
-15.1138
-15.0685
-15.01
-14.9375
-14.8498
-14.746
-14.6251
-14.4862
-14.3286
-14.1513
-13.954
-13.7359
-13.4967
-13.2362
-12.9543
-12.6512
-12.3272
-11.983
-11.6194
-11.2375
-10.8386
-10.4246
-9.99711
-9.55841
-9.11079
-8.65676
-8.19899
-7.74021
-7.28323
-6.83083
-6.38574
-5.95057
-5.52776
-5.11955
-4.72789
-4.35449
-4.00073
-3.66767
-3.35607
-3.06636
-2.79869
-2.55294
-2.32873
-2.12547
-1.94234
-1.7784
-1.63254
-1.50352
-1.39002
-1.29063
-1.20383
-1.12808
-1.06177
-1.00323
-0.95082
-0.902865
-0.857739
-0.813874
-0.769785
-0.724156
-0.675738
-0.623758
-0.567008
-0.506219
-0.438376
-0.37027
-0.28647
-0.224166
-0.0972488
-0.113744
-14.1243
-14.236
-14.2967
-14.3149
-14.3223
-14.327
-14.3322
-14.3393
-14.3602
-14.394
-14.4361
-14.4859
-14.5416
-14.601
-14.662
-14.7226
-14.7812
-14.8367
-14.8882
-14.9353
-14.9775
-15.0146
-15.0461
-15.0717
-15.091
-15.1033
-15.108
-15.1042
-15.0912
-15.068
-15.0337
-14.9874
-14.928
-14.8546
-14.7662
-14.6618
-14.5405
-14.4015
-14.244
-14.0673
-13.8708
-13.6539
-13.4164
-13.1579
-12.8785
-12.5783
-12.2576
-11.9172
-11.5578
-11.1805
-10.7866
-10.3779
-9.9561
-9.52333
-9.08185
-8.63413
-8.18274
-7.73035
-7.2797
-6.83348
-6.39434
-5.96481
-5.54726
-5.14385
-4.7565
-4.38685
-4.03624
-3.70574
-3.39608
-3.10772
-2.84083
-2.59531
-2.37082
-2.1668
-1.9825
-1.81701
-1.66927
-1.5381
-1.42222
-1.32027
-1.23081
-1.15233
-1.08329
-1.02208
-0.967093
-0.916695
-0.869284
-0.823317
-0.777312
-0.729983
-0.680028
-0.626791
-0.568812
-0.507339
-0.438255
-0.370653
-0.284248
-0.226509
-0.0896194
-0.127946
-14.0894
-14.1366
-14.1528
-14.1675
-14.1934
-14.2232
-14.2533
-14.292
-14.334
-14.3739
-14.4183
-14.4671
-14.519
-14.573
-14.6279
-14.6828
-14.7365
-14.7882
-14.837
-14.8821
-14.9229
-14.9586
-14.9886
-15.0123
-15.0292
-15.0388
-15.0405
-15.0335
-15.0173
-14.9911
-14.9539
-14.9049
-14.8433
-14.7679
-14.6778
-14.5722
-14.4501
-14.3106
-14.153
-13.9766
-13.7808
-13.5651
-13.3291
-13.0727
-12.7958
-12.4986
-12.1815
-11.845
-11.4901
-11.1177
-10.7292
-10.3262
-9.91046
-9.48405
-9.04916
-8.60818
-8.16362
-7.71809
-7.2742
-6.83457
-6.40177
-5.97823
-5.56624
-5.16789
-4.78504
-4.4193
-4.07197
-3.74412
-3.43648
-3.14952
-2.88344
-2.63818
-2.41344
-2.2087
-2.02326
-1.85625
-1.70667
-1.57338
-1.45515
-1.35066
-1.25854
-1.17731
-1.10549
-1.04152
-0.983838
-0.930863
-0.881023
-0.832811
-0.784751
-0.735598
-0.684004
-0.629431
-0.570178
-0.507995
-0.437708
-0.370612
-0.281801
-0.228451
-0.0825029
-0.140741
-14.0778
-14.133
-14.1771
-14.2127
-14.2431
-14.2691
-14.2929
-14.3086
-14.335
-14.3679
-14.4062
-14.4495
-14.4967
-14.5466
-14.598
-14.6494
-14.6997
-14.7477
-14.7926
-14.8336
-14.8701
-14.9016
-14.9276
-14.9476
-14.9611
-14.9676
-14.9664
-14.9569
-14.9382
-14.9097
-14.8703
-14.8193
-14.7557
-14.6785
-14.5869
-14.48
-14.3568
-14.2167
-14.0588
-13.8825
-13.6872
-13.4725
-13.2381
-12.9837
-12.7094
-12.4153
-12.1017
-11.7694
-11.4191
-11.0518
-10.6689
-10.2719
-9.86255
-9.44285
-9.01491
-8.58106
-8.1437
-7.70534
-7.26851
-6.83573
-6.40945
-5.99203
-5.5857
-5.19246
-4.81415
-4.45231
-4.10827
-3.78306
-3.47743
-3.19187
-2.9266
-2.68159
-2.45659
-2.25112
-2.06453
-1.89601
-1.74458
-1.60917
-1.4886
-1.38158
-1.28679
-1.2028
-1.12817
-1.0614
-1.00096
-0.945318
-0.892947
-0.842378
-0.792154
-0.741077
-0.68776
-0.631786
-0.57123
-0.50832
-0.43688
-0.370288
-0.279282
-0.23009
-0.0760528
-0.152094
-14.0643
-14.1094
-14.1436
-14.1694
-14.1931
-14.2167
-14.2419
-14.2747
-14.3081
-14.3442
-14.3836
-14.4262
-14.4714
-14.5183
-14.5659
-14.6133
-14.6594
-14.7034
-14.7445
-14.782
-14.8153
-14.8437
-14.8668
-14.8839
-14.8945
-14.8981
-14.8939
-14.8813
-14.8597
-14.8282
-14.7861
-14.7325
-14.6665
-14.5872
-14.4938
-14.3855
-14.2612
-14.1204
-13.9622
-13.7861
-13.5914
-13.3778
-13.145
-12.8928
-12.6211
-12.3302
-12.0205
-11.6925
-11.347
-10.9852
-10.6081
-10.2174
-9.81475
-9.40198
-8.98121
-8.55463
-8.12458
-7.69345
-7.26369
-6.83773
-6.41793
-6.00659
-5.60584
-5.21767
-4.84383
-4.48586
-4.14507
-3.82247
-3.51883
-3.23465
-2.97018
-2.72543
-2.50017
-2.29397
-2.10624
-1.93619
-1.78292
-1.64539
-1.52246
-1.4129
-1.31543
-1.22867
-1.15121
-1.0816
-1.01836
-0.960006
-0.90504
-0.852043
-0.799579
-0.746506
-0.691408
-0.63399
-0.572115
-0.508469
-0.435929
-0.369824
-0.276837
-0.231505
-0.0703687
-0.161994
-14.0514
-14.0923
-14.1277
-14.1584
-14.1876
-14.2167
-14.2426
-14.2696
-14.2988
-14.3312
-14.3669
-14.4058
-14.4471
-14.4901
-14.5339
-14.5775
-14.6199
-14.6602
-14.6978
-14.7318
-14.7616
-14.7866
-14.8062
-14.82
-14.8274
-14.8278
-14.8205
-14.805
-14.7806
-14.7464
-14.7017
-14.6457
-14.5775
-14.4963
-14.4012
-14.2914
-14.1661
-14.0245
-13.8661
-13.6901
-13.4961
-13.2837
-13.0525
-12.8025
-12.5336
-12.2461
-11.9402
-11.6167
-11.2762
-10.9198
-10.5487
-10.1643
-9.76824
-9.36239
-8.9487
-8.52932
-8.10648
-7.68249
-7.25969
-6.84044
-6.42703
-6.02167
-5.62643
-5.24324
-4.87382
-4.51968
-4.1821
-3.8621
-3.56044
-3.27764
-3.01398
-2.76949
-2.54399
-2.33709
-2.14822
-1.97667
-1.82156
-1.68192
-1.55663
-1.44454
-1.34438
-1.25483
-1.17453
-1.10207
-1.03601
-0.974905
-0.917305
-0.861836
-0.80709
-0.751977
-0.695065
-0.636174
-0.572976
-0.508586
-0.434997
-0.369337
-0.274571
-0.232742
-0.0654907
-0.170452
-14.0387
-14.0757
-14.109
-14.1384
-14.1657
-14.1915
-14.2189
-14.2467
-14.2768
-14.3092
-14.3441
-14.3811
-14.42
-14.4601
-14.5005
-14.5406
-14.5793
-14.6161
-14.65
-14.6805
-14.7069
-14.7287
-14.7452
-14.7559
-14.7602
-14.7576
-14.7475
-14.7291
-14.7019
-14.665
-14.6178
-14.5594
-14.489
-14.4059
-14.3091
-14.198
-14.0717
-13.9295
-13.7709
-13.5952
-13.4019
-13.1907
-12.9613
-12.7135
-12.4475
-12.1633
-11.8614
-11.5423
-11.2067
-10.8557
-10.4905
-10.1123
-9.72286
-9.32382
-8.91713
-8.50483
-8.08908
-7.67211
-7.25618
-6.84355
-6.43643
-6.03696
-5.64716
-5.2689
-4.90387
-4.55353
-4.21915
-3.90173
-3.60206
-3.32066
-3.05783
-2.81362
-2.5879
-2.38031
-2.19034
-2.01731
-1.86039
-1.71864
-1.59102
-1.4764
-1.37356
-1.28123
-1.19809
-1.12276
-1.05387
-0.990001
-0.929751
-0.871789
-0.814738
-0.757564
-0.69882
-0.638441
-0.573922
-0.508774
-0.434177
-0.368894
-0.272541
-0.233816
-0.0614081
-0.177503
-14.0258
-14.0599
-14.0917
-14.1209
-14.1487
-14.1759
-14.2032
-14.2306
-14.2594
-14.2901
-14.3227
-14.3571
-14.393
-14.4298
-14.4668
-14.5033
-14.5385
-14.5717
-14.6022
-14.6293
-14.6523
-14.6708
-14.6841
-14.6917
-14.693
-14.6874
-14.6743
-14.6531
-14.6232
-14.5837
-14.534
-14.4734
-14.4009
-14.3159
-14.2176
-14.1053
-13.9781
-13.8354
-13.6767
-13.5013
-13.3088
-13.0988
-12.8712
-12.6257
-12.3625
-12.0817
-11.7837
-11.469
-11.1384
-10.7928
-10.4333
-10.0613
-9.6783
-9.28598
-8.88618
-8.48087
-8.07212
-7.66207
-7.25291
-6.8468
-6.4459
-6.05227
-5.66786
-5.29449
-4.93381
-4.58725
-4.25606
-3.94124
-3.64356
-3.36357
-3.10159
-2.85769
-2.63178
-2.42354
-2.23249
-2.058
-1.89929
-1.75547
-1.62553
-1.50839
-1.40289
-1.30779
-1.22181
-1.14363
-1.0719
-1.00527
-0.942367
-0.881908
-0.822545
-0.763303
-0.702722
-0.640845
-0.575007
-0.50908
-0.43351
-0.36852
-0.27076
-0.234721
-0.0580766
-0.183208
-14.0128
-14.0444
-14.0747
-14.1031
-14.1303
-14.1568
-14.1834
-14.2103
-14.2383
-14.2678
-14.2987
-14.331
-14.3643
-14.3982
-14.4321
-14.4653
-14.4971
-14.5269
-14.554
-14.5777
-14.5975
-14.6127
-14.6229
-14.6274
-14.6256
-14.6171
-14.6012
-14.5773
-14.5446
-14.5027
-14.4506
-14.3877
-14.3133
-14.2265
-14.1267
-14.0132
-13.8851
-13.742
-13.5832
-13.4082
-13.2165
-13.0079
-12.7821
-12.539
-12.2786
-12.0011
-11.707
-11.3967
-11.0709
-10.7306
-10.3769
-10.011
-9.63438
-9.24869
-8.85569
-8.45727
-8.05542
-7.65221
-7.24973
-6.85008
-6.45533
-6.06747
-5.68841
-5.3199
-4.96354
-4.62075
-4.29274
-3.98052
-3.68485
-3.40629
-3.14517
-2.90162
-2.67554
-2.46667
-2.27458
-2.09866
-1.93819
-1.79232
-1.66009
-1.54046
-1.43231
-1.33445
-1.24564
-1.16462
-1.09007
-1.02068
-0.955129
-0.892176
-0.830504
-0.769193
-0.706775
-0.643394
-0.576242
-0.509514
-0.433
-0.368211
-0.26922
-0.235448
-0.0554359
-0.187653
-13.9996
-14.0292
-14.0579
-14.0854
-14.112
-14.1381
-14.1641
-14.1904
-14.2173
-14.2453
-14.2744
-14.3044
-14.3351
-14.3661
-14.3968
-14.4268
-14.4553
-14.4818
-14.5055
-14.5259
-14.5425
-14.5545
-14.5616
-14.563
-14.5583
-14.5469
-14.5282
-14.5015
-14.4663
-14.4218
-14.3674
-14.3024
-14.226
-14.1376
-14.0364
-13.9217
-13.7929
-13.6494
-13.4906
-13.316
-13.1252
-12.9179
-12.6939
-12.4531
-12.1956
-11.9215
-11.6312
-11.3252
-11.0043
-10.6693
-10.3212
-9.96128
-9.59099
-9.21184
-8.82555
-8.43393
-8.0389
-7.64244
-7.24656
-6.85329
-6.46463
-6.08249
-5.70873
-5.34504
-4.99298
-4.65395
-4.32912
-4.0195
-3.72585
-3.44874
-3.18852
-2.94533
-2.71912
-2.50966
-2.31654
-2.13923
-1.97703
-1.82914
-1.69464
-1.57254
-1.46176
-1.36116
-1.26955
-1.1857
-1.10833
-1.0362
-0.968009
-0.90257
-0.838597
-0.77522
-0.71097
-0.646081
-0.577618
-0.510065
-0.432638
-0.367956
-0.267906
-0.235994
-0.0534214
-0.19094
-13.9862
-14.014
-14.0413
-14.0677
-14.0935
-14.1188
-14.1439
-14.1693
-14.1951
-14.2216
-14.2488
-14.2766
-14.3049
-14.3331
-14.3609
-14.3878
-14.4131
-14.4363
-14.4568
-14.474
-14.4874
-14.4963
-14.5003
-14.4987
-14.4911
-14.4768
-14.4553
-14.426
-14.3882
-14.3413
-14.2846
-14.2175
-14.1393
-14.0492
-13.9467
-13.8309
-13.7014
-13.5575
-13.3987
-13.2246
-13.0347
-12.8288
-12.6066
-12.3682
-12.1135
-11.8427
-11.5563
-11.2546
-10.9384
-10.6086
-10.2661
-9.91216
-9.54809
-9.1754
-8.79573
-8.41082
-8.02252
-7.63271
-7.24336
-6.85639
-6.47375
-6.09728
-5.72876
-5.36986
-5.02208
-4.68678
-4.36514
-4.05812
-3.7665
-3.49086
-3.23155
-2.98875
-2.76244
-2.55242
-2.35833
-2.17965
-2.01575
-1.86586
-1.72912
-1.60458
-1.4912
-1.38788
-1.29349
-1.20682
-1.12666
-1.0518
-0.980985
-0.913071
-0.846806
-0.78137
-0.715293
-0.648894
-0.579127
-0.510727
-0.432418
-0.367751
-0.266807
-0.236367
-0.05197
-0.193187
-13.9726
-13.9988
-14.0247
-14.05
-14.0747
-14.0991
-14.1234
-14.1476
-14.1722
-14.1971
-14.2225
-14.2482
-14.274
-14.2996
-14.3246
-14.3484
-14.3706
-14.3907
-14.408
-14.4221
-14.4323
-14.4381
-14.4391
-14.4346
-14.424
-14.4069
-14.3827
-14.3508
-14.3105
-14.2612
-14.2023
-14.1332
-14.0531
-13.9615
-13.8576
-13.7409
-13.6107
-13.4665
-13.3078
-13.1342
-12.9452
-12.7407
-12.5203
-12.2842
-12.0323
-11.7649
-11.4822
-11.1848
-10.8734
-10.5487
-10.2117
-9.86361
-9.50568
-9.13936
-8.76621
-8.38792
-8.00624
-7.62301
-7.24009
-6.85935
-6.48265
-6.11179
-5.74847
-5.39431
-5.05078
-4.71921
-4.40073
-4.09632
-3.80674
-3.53258
-3.27422
-3.03184
-2.80546
-2.5949
-2.39986
-2.21986
-2.05429
-1.90244
-1.76349
-1.63653
-1.52058
-1.41457
-1.31741
-1.22796
-1.14503
-1.06746
-0.994036
-0.923663
-0.855119
-0.787633
-0.719739
-0.651829
-0.580766
-0.511498
-0.432337
-0.3676
-0.265914
-0.236583
-0.0510206
-0.194516
-13.9588
-13.9835
-14.008
-14.0321
-14.0558
-14.0791
-14.1023
-14.1254
-14.1486
-14.1719
-14.1955
-14.2191
-14.2425
-14.2655
-14.2877
-14.3086
-14.3279
-14.3449
-14.3591
-14.3701
-14.3772
-14.3801
-14.378
-14.3706
-14.3572
-14.3374
-14.3104
-14.2759
-14.2332
-14.1816
-14.1206
-14.0495
-13.9676
-13.8745
-13.7694
-13.6517
-13.5209
-13.3764
-13.2178
-13.0447
-12.8567
-12.6535
-12.4351
-12.2013
-11.9522
-11.688
-11.4091
-11.1159
-10.8091
-10.4895
-10.158
-9.81564
-9.46376
-9.10371
-8.73699
-8.36521
-7.99006
-7.61331
-7.23673
-6.86214
-6.49132
-6.12599
-5.76781
-5.41835
-5.07904
-4.75116
-4.43584
-4.13404
-3.84651
-3.57385
-3.31645
-3.07452
-2.8481
-2.63705
-2.44109
-2.25979
-2.09259
-1.93882
-1.7977
-1.66836
-1.54986
-1.44119
-1.3413
-1.24908
-1.16341
-1.08315
-1.00714
-0.934329
-0.863524
-0.794002
-0.724302
-0.654884
-0.582535
-0.512382
-0.432398
-0.367507
-0.265221
-0.236663
-0.0505144
-0.195047
-13.9447
-13.968
-13.9912
-14.0141
-14.0366
-14.0588
-14.0808
-14.1026
-14.1244
-14.1461
-14.1678
-14.1893
-14.2105
-14.2309
-14.2505
-14.2686
-14.2849
-14.2989
-14.3102
-14.3181
-14.3223
-14.3221
-14.3172
-14.3069
-14.2907
-14.2681
-14.2386
-14.2015
-14.1564
-14.1026
-14.0394
-13.9664
-13.8829
-13.7883
-13.6819
-13.5634
-13.432
-13.2873
-13.1288
-12.9562
-12.7692
-12.5674
-12.3508
-12.1194
-11.8731
-11.6122
-11.337
-11.048
-10.7457
-10.4311
-10.1049
-9.76827
-9.42234
-9.06846
-8.70806
-8.34269
-7.97398
-7.6036
-7.23328
-6.86474
-6.49971
-6.13984
-5.78675
-5.44195
-5.10681
-4.78261
-4.47043
-4.17123
-3.88576
-3.61461
-3.35819
-3.11673
-2.89029
-2.67879
-2.48195
-2.29939
-2.1306
-1.97494
-1.83168
-1.69999
-1.57899
-1.46769
-1.3651
-1.27016
-1.18177
-1.09885
-1.02028
-0.945053
-0.872009
-0.800467
-0.728977
-0.658057
-0.584435
-0.51338
-0.432602
-0.367481
-0.264719
-0.23663
-0.0503936
-0.1949
-13.9303
-13.9523
-13.9742
-13.9959
-14.0172
-14.0382
-14.0589
-14.0794
-14.0997
-14.1198
-14.1396
-14.1591
-14.1779
-14.196
-14.2129
-14.2283
-14.2418
-14.2529
-14.2612
-14.2663
-14.2675
-14.2644
-14.2566
-14.2435
-14.2246
-14.1994
-14.1673
-14.1277
-14.0802
-14.0242
-13.959
-13.8842
-13.799
-13.703
-13.5955
-13.4761
-13.3441
-13.1992
-13.041
-12.8689
-12.6829
-12.4825
-12.2678
-12.0386
-11.795
-11.5374
-11.2658
-10.9809
-10.6832
-10.3735
-10.0526
-9.72153
-9.38146
-9.03364
-8.67945
-8.32038
-7.95799
-7.59388
-7.22971
-6.86713
-6.5078
-6.15333
-5.80526
-5.46505
-5.13405
-4.81349
-4.50444
-4.20782
-3.92441
-3.65478
-3.39936
-3.1584
-2.93199
-2.72005
-2.52237
-2.3386
-2.16825
-2.01075
-1.86539
-1.73139
-1.60791
-1.49403
-1.38878
-1.29114
-1.20006
-1.11452
-1.03343
-0.955813
-0.880556
-0.807016
-0.733755
-0.661342
-0.586461
-0.514493
-0.432947
-0.367526
-0.264398
-0.236509
-0.0506012
-0.194187
-13.9157
-13.9365
-13.9571
-13.9774
-13.9975
-14.0173
-14.0367
-14.0558
-14.0746
-14.093
-14.1109
-14.1284
-14.145
-14.1607
-14.1751
-14.1878
-14.1986
-14.2069
-14.2124
-14.2146
-14.2129
-14.2071
-14.1965
-14.1806
-14.159
-14.1311
-14.0965
-14.0546
-14.0048
-13.9466
-13.8795
-13.8028
-13.716
-13.6187
-13.5101
-13.3898
-13.2574
-13.1124
-12.9543
-12.7829
-12.5978
-12.3988
-12.1859
-11.959
-11.7182
-11.4637
-11.1958
-10.9149
-10.6217
-10.3168
-10.0011
-9.67547
-9.34113
-8.99926
-8.65118
-8.29829
-7.9421
-7.58415
-7.22602
-6.8693
-6.51559
-6.16643
-5.8233
-5.48763
-5.16072
-4.84376
-4.53781
-4.24377
-3.96241
-3.69431
-3.43991
-3.19947
-2.97311
-2.76078
-2.56229
-2.37734
-2.20548
-2.04617
-1.89875
-1.76249
-1.63659
-1.52016
-1.41228
-1.31198
-1.21827
-1.13014
-1.04655
-0.966584
-0.889144
-0.813631
-0.738622
-0.66473
-0.588606
-0.515717
-0.433428
-0.367647
-0.264242
-0.236322
-0.0510807
-0.193015
-13.9009
-13.9204
-13.9397
-13.9588
-13.9776
-13.9961
-14.0142
-14.0318
-14.049
-14.0658
-14.0819
-14.0973
-14.1118
-14.1252
-14.1371
-14.1473
-14.1554
-14.161
-14.1638
-14.1631
-14.1587
-14.1501
-14.1367
-14.1182
-14.094
-14.0636
-14.0265
-13.9822
-13.9302
-13.8699
-13.8009
-13.7224
-13.6342
-13.5355
-13.4259
-13.3049
-13.172
-13.0268
-12.869
-12.6981
-12.514
-12.3165
-12.1054
-11.8808
-11.6427
-11.3913
-11.1269
-10.85
-10.5611
-10.261
-9.95033
-9.63012
-9.30141
-8.96537
-8.62326
-8.27644
-7.92633
-7.57441
-7.22221
-6.87125
-6.52305
-6.1791
-5.84085
-5.50965
-5.18677
-4.87337
-4.57049
-4.27902
-3.99971
-3.73314
-3.47977
-3.23987
-3.01358
-2.80089
-2.60164
-2.41555
-2.24222
-2.08115
-1.93172
-1.79324
-1.66495
-1.54602
-1.43556
-1.33265
-1.23634
-1.14566
-1.05962
-0.977337
-0.897749
-0.820292
-0.74356
-0.668207
-0.590858
-0.517045
-0.434034
-0.367841
-0.264232
-0.236092
-0.0517755
-0.191486
-13.8858
-13.9041
-13.9222
-13.9401
-13.9576
-13.9747
-13.9914
-14.0076
-14.0232
-14.0383
-14.0526
-14.066
-14.0784
-14.0895
-14.0991
-14.1068
-14.1123
-14.1153
-14.1154
-14.112
-14.1049
-14.0936
-14.0776
-14.0564
-14.0297