/*--------------------------------*- C++ -*----------------------------------*\
| =========                 |                                                 |
| \\      /  F ield         | OpenFOAM: The Open Source CFD Toolbox           |
|  \\    /   O peration     | Version:  2.1.1                                 |
|   \\  /    A nd           | Web:      www.OpenFOAM.org                      |
|    \\/     M anipulation  |                                                 |
\*---------------------------------------------------------------------------*/
FoamFile
{
    version     2.0;
    format      ascii;
    class       surfaceScalarField;
    location    "0.16";
    object      phi;
}
// * * * * * * * * * * * * * * * * * * * * * * * * * * * * * * * * * * * * * //

dimensions      [0 3 -1 0 0 0 0];

internalField   nonuniform List<scalar> 
13452
(
6.89923e-05
-5.04997e-07
6.88134e-05
1.78854e-07
6.82018e-05
6.11599e-07
6.72541e-05
9.47709e-07
6.61772e-05
1.07694e-06
6.50852e-05
1.09198e-06
6.40199e-05
1.06527e-06
6.29987e-05
1.02124e-06
6.20298e-05
9.68852e-07
6.11168e-05
9.13007e-07
6.02607e-05
8.5612e-07
5.94611e-05
7.99643e-07
5.87165e-05
7.44523e-07
5.80251e-05
6.91424e-07
5.73843e-05
6.40794e-07
5.67914e-05
5.92914e-07
5.62435e-05
5.4794e-07
5.57375e-05
5.05931e-07
5.52707e-05
4.66871e-07
5.484e-05
4.30696e-07
5.44426e-05
3.97314e-07
5.4076e-05
3.66619e-07
5.37375e-05
3.38515e-07
5.34246e-05
3.12935e-07
5.31347e-05
2.89879e-07
5.28652e-05
2.69466e-07
5.26132e-05
2.5204e-07
5.23747e-05
2.3848e-07
5.21443e-05
2.3041e-07
5.19114e-05
2.32938e-07
5.16573e-05
2.54096e-07
5.13326e-05
3.24717e-07
5.09722e-07
5.08228e-05
7.01649e-05
-2.25993e-07
7.00411e-05
3.02711e-07
7.01817e-05
4.71025e-07
7.05089e-05
6.20482e-07
7.08593e-05
7.2654e-07
7.1158e-05
7.93217e-07
7.13825e-05
8.4077e-07
7.15344e-05
8.69343e-07
7.16217e-05
8.81632e-07
7.16531e-05
8.81616e-07
7.16369e-05
8.72244e-07
7.15807e-05
8.55844e-07
7.1491e-05
8.34222e-07
7.13736e-05
8.08847e-07
7.12335e-05
7.80893e-07
7.10751e-05
7.51302e-07
7.09022e-05
7.20822e-07
7.07181e-05
6.90043e-07
7.05256e-05
6.59425e-07
7.03269e-05
6.29323e-07
7.01242e-05
6.00011e-07
6.99192e-05
5.71705e-07
6.97131e-05
5.4459e-07
6.95072e-05
5.18842e-07
6.93024e-05
4.94675e-07
6.90995e-05
4.72361e-07
6.88991e-05
4.52411e-07
6.87021e-05
4.35457e-07
6.85093e-05
4.23278e-07
6.83254e-05
4.16762e-07
6.81563e-05
4.23193e-07
6.80494e-05
4.31689e-07
4.69487e-07
6.80896e-05
7.22816e-05
-5.10521e-08
7.23967e-05
1.87612e-07
7.25014e-05
3.6627e-07
7.25879e-05
5.34059e-07
7.2671e-05
6.43365e-07
7.2753e-05
7.11306e-07
7.2839e-05
7.54756e-07
7.29255e-05
7.82772e-07
7.30086e-05
7.98531e-07
7.30857e-05
8.04582e-07
7.3155e-05
8.02881e-07
7.32159e-05
7.95001e-07
7.32679e-05
7.82221e-07
7.33111e-05
7.65661e-07
7.33457e-05
7.46263e-07
7.33722e-05
7.24818e-07
7.3391e-05
7.01979e-07
7.34028e-05
6.78284e-07
7.3408e-05
6.54169e-07
7.34074e-05
6.29987e-07
7.34014e-05
6.06028e-07
7.33905e-05
5.82536e-07
7.33754e-05
5.5973e-07
7.33564e-05
5.37824e-07
7.3334e-05
5.17072e-07
7.33086e-05
4.97775e-07
7.32806e-05
4.80428e-07
7.32505e-05
4.6557e-07
7.32192e-05
4.54561e-07
7.31884e-05
4.47597e-07
7.31621e-05
4.49459e-07
7.3143e-05
4.50804e-07
4.76757e-07
7.31357e-05
7.45185e-05
-4.28917e-08
7.4488e-05
2.18028e-07
7.44765e-05
3.77831e-07
7.45159e-05
4.94631e-07
7.4576e-05
5.83266e-07
7.46421e-05
6.45176e-07
7.47078e-05
6.89133e-07
7.47713e-05
7.19195e-07
7.48326e-05
7.37318e-07
7.48913e-05
7.4587e-07
7.49473e-05
7.46878e-07
7.50004e-05
7.41899e-07
7.50504e-05
7.32181e-07
7.50973e-05
7.18784e-07
7.5141e-05
7.02586e-07
7.51815e-05
6.84318e-07
7.52189e-05
6.64582e-07
7.52533e-05
6.43875e-07
7.52848e-05
6.22607e-07
7.53137e-05
6.0111e-07
7.53401e-05
5.79664e-07
7.53641e-05
5.58508e-07
7.5386e-05
5.37859e-07
7.54059e-05
5.17928e-07
7.5424e-05
4.98958e-07
7.54405e-05
4.8122e-07
7.54558e-05
4.65117e-07
7.54704e-05
4.51032e-07
7.54852e-05
4.39785e-07
7.55015e-05
4.31253e-07
7.55238e-05
4.2714e-07
7.55531e-05
4.2155e-07
4.18555e-07
7.56113e-05
7.66035e-05
9.43018e-09
7.66281e-05
1.93427e-07
7.66644e-05
3.4153e-07
7.67024e-05
4.56649e-07
7.67406e-05
5.45083e-07
7.67799e-05
6.05865e-07
7.68216e-05
6.47457e-07
7.68652e-05
6.75569e-07
7.69097e-05
6.92805e-07
7.69543e-05
7.01312e-07
7.69983e-05
7.02859e-07
7.70414e-05
6.98818e-07
7.70833e-05
6.90312e-07
7.71237e-05
6.78301e-07
7.71627e-05
6.63593e-07
7.72002e-05
6.46863e-07
7.72361e-05
6.28672e-07
7.72705e-05
6.09486e-07
7.73034e-05
5.89689e-07
7.73349e-05
5.69598e-07
7.73651e-05
5.49479e-07
7.7394e-05
5.2956e-07
7.74219e-05
5.10047e-07
7.74487e-05
4.91137e-07
7.74746e-05
4.73043e-07
7.74998e-05
4.55987e-07
7.75247e-05
4.40258e-07
7.75496e-05
4.26079e-07
7.75755e-05
4.1385e-07
7.76036e-05
4.03213e-07
7.76362e-05
3.94513e-07
7.7674e-05
3.83739e-07
3.71694e-07
7.77209e-05
7.88311e-05
2.4206e-08
7.88387e-05
1.85863e-07
7.88567e-05
3.23495e-07
7.88855e-05
4.27939e-07
7.89216e-05
5.08941e-07
7.89605e-05
5.66918e-07
7.90004e-05
6.07588e-07
7.90405e-05
6.3547e-07
7.90805e-05
6.52858e-07
7.912e-05
6.61729e-07
7.91591e-05
6.63807e-07
7.91975e-05
6.60448e-07
7.9235e-05
6.5275e-07
7.92717e-05
6.41641e-07
7.93074e-05
6.27893e-07
7.93421e-05
6.12151e-07
7.93758e-05
5.9495e-07
7.94086e-05
5.76736e-07
7.94404e-05
5.57873e-07
7.94713e-05
5.38666e-07
7.95014e-05
5.19369e-07
7.95308e-05
5.00198e-07
7.95595e-05
4.81345e-07
7.95876e-05
4.62988e-07
7.96154e-05
4.45301e-07
7.96429e-05
4.28451e-07
7.96705e-05
4.1262e-07
7.96987e-05
3.97896e-07
7.97282e-05
3.84378e-07
7.97598e-05
3.71612e-07
7.97951e-05
3.59255e-07
7.98341e-05
3.44681e-07
3.27107e-07
7.98787e-05
8.10847e-05
3.80336e-08
8.10947e-05
1.75933e-07
8.1118e-05
3.00117e-07
8.11486e-05
3.97393e-07
8.11831e-05
4.74441e-07
8.12189e-05
5.31123e-07
8.12552e-05
5.71217e-07
8.1292e-05
5.98731e-07
8.13288e-05
6.16054e-07
8.13654e-05
6.2512e-07
8.14016e-05
6.27584e-07
8.14373e-05
6.24757e-07
8.14724e-05
6.17697e-07
8.15067e-05
6.07293e-07
8.15403e-05
5.9429e-07
8.15732e-05
5.79304e-07
8.16053e-05
5.62852e-07
8.16366e-05
5.4536e-07
8.16673e-05
5.2718e-07
8.16974e-05
5.08605e-07
8.17269e-05
4.89877e-07
8.17559e-05
4.712e-07
8.17845e-05
4.52751e-07
8.18128e-05
4.34685e-07
8.18409e-05
4.1714e-07
8.18692e-05
4.0023e-07
8.18977e-05
3.84045e-07
8.19271e-05
3.68576e-07
8.19577e-05
3.53744e-07
8.19902e-05
3.39075e-07
8.20255e-05
3.24005e-07
8.20633e-05
3.06808e-07
2.86539e-07
8.21039e-05
8.34101e-05
4.35112e-08
8.34199e-05
1.66053e-07
8.34407e-05
2.79372e-07
8.34681e-05
3.69976e-07
8.35003e-05
4.42222e-07
8.35349e-05
4.96527e-07
8.35705e-05
5.35588e-07
8.36066e-05
5.62719e-07
8.36425e-05
5.801e-07
8.36781e-05
5.8949e-07
8.37133e-05
5.92431e-07
8.37479e-05
5.90177e-07
8.37818e-05
5.83755e-07
8.38151e-05
5.74026e-07
8.38477e-05
5.61709e-07
8.38796e-05
5.47404e-07
8.39108e-05
5.3161e-07
8.39414e-05
5.14739e-07
8.39715e-05
4.97132e-07
8.4001e-05
4.79072e-07
8.40301e-05
4.6079e-07
8.40588e-05
4.42479e-07
8.40873e-05
4.243e-07
8.41156e-05
4.06385e-07
8.41439e-05
3.88839e-07
8.41724e-05
3.71732e-07
8.42013e-05
3.55088e-07
8.42311e-05
3.38837e-07
8.4262e-05
3.22807e-07
8.42945e-05
3.0656e-07
8.4329e-05
2.89527e-07
8.43652e-05
2.70575e-07
2.48952e-07
8.44028e-05
8.57963e-05
4.59257e-08
8.58061e-05
1.56256e-07
8.58263e-05
2.5923e-07
8.58529e-05
3.43335e-07
8.58841e-05
4.11049e-07
8.59176e-05
4.62946e-07
8.59524e-05
5.00882e-07
8.59876e-05
5.27515e-07
8.60228e-05
5.4483e-07
8.60579e-05
5.54448e-07
8.60925e-05
5.57802e-07
8.61266e-05
5.56081e-07
8.61601e-05
5.50267e-07
8.61929e-05
5.41184e-07
8.62251e-05
5.29525e-07
8.62566e-05
5.15867e-07
8.62876e-05
5.00692e-07
8.63179e-05
4.84399e-07
8.63477e-05
4.67317e-07
8.63771e-05
4.49718e-07
8.6406e-05
4.31824e-07
8.64347e-05
4.13816e-07
8.64632e-05
3.95839e-07
8.64915e-05
3.78006e-07
8.652e-05
3.60395e-07
8.65487e-05
3.43042e-07
8.65778e-05
3.2593e-07
8.66077e-05
3.08955e-07
8.66386e-05
2.91918e-07
8.66707e-05
2.74442e-07
8.67042e-05
2.56046e-07
8.67388e-05
2.35995e-07
2.1379e-07
8.67739e-05
8.82501e-05
4.5871e-08
8.826e-05
1.46278e-07
8.82792e-05
2.40049e-07
8.83045e-05
3.18049e-07
8.83342e-05
3.81339e-07
8.83666e-05
4.30539e-07
8.84005e-05
4.67014e-07
8.84351e-05
4.92901e-07
8.847e-05
5.09971e-07
8.85047e-05
5.19693e-07
8.85391e-05
5.23375e-07
8.85731e-05
5.22127e-07
8.86065e-05
5.16874e-07
8.86393e-05
5.08402e-07
8.86714e-05
4.9737e-07
8.8703e-05
4.84333e-07
8.87339e-05
4.69753e-07
8.87643e-05
4.54013e-07
8.87942e-05
4.37432e-07
8.88236e-05
4.20269e-07
8.88527e-05
4.02736e-07
8.88815e-05
3.85003e-07
8.89102e-05
3.67202e-07
8.89387e-05
3.49427e-07
8.89674e-05
3.31738e-07
8.89963e-05
3.14148e-07
8.90256e-05
2.96618e-07
8.90555e-05
2.79035e-07
8.90862e-05
2.61208e-07
8.91178e-05
2.42834e-07
8.91503e-05
2.23542e-07
8.91835e-05
2.02864e-07
1.80511e-07
8.92167e-05
9.07727e-05
4.44386e-08
9.07827e-05
1.36329e-07
9.0801e-05
2.2177e-07
9.08251e-05
2.93869e-07
9.08537e-05
3.52813e-07
9.0885e-05
3.9917e-07
9.09181e-05
4.33977e-07
9.0952e-05
4.58933e-07
9.09864e-05
4.75586e-07
9.10209e-05
4.8526e-07
9.10551e-05
4.89144e-07
9.1089e-05
4.88264e-07
9.11223e-05
4.83491e-07
9.11552e-05
4.75563e-07
9.11874e-05
4.65107e-07
9.12191e-05
4.52649e-07
9.12503e-05
4.3863e-07
9.12809e-05
4.23417e-07
9.1311e-05
4.07314e-07
9.13407e-05
3.9057e-07
9.137e-05
3.73383e-07
9.13991e-05
3.55915e-07
9.1428e-05
3.38283e-07
9.14569e-05
3.2057e-07
9.14858e-05
3.02822e-07
9.15149e-05
2.8504e-07
9.15443e-05
2.67177e-07
9.15743e-05
2.49128e-07
9.16047e-05
2.3073e-07
9.16358e-05
2.1175e-07
9.16674e-05
1.91925e-07
9.16993e-05
1.70964e-07
1.48729e-07
9.17311e-05
9.33669e-05
4.21738e-08
9.33768e-05
1.26433e-07
9.33943e-05
2.04312e-07
9.34174e-05
2.70756e-07
9.34447e-05
3.25457e-07
9.3475e-05
3.68875e-07
9.35072e-05
4.01822e-07
9.35405e-05
4.25654e-07
9.35743e-05
4.41712e-07
9.36084e-05
4.51179e-07
9.36424e-05
4.55129e-07
9.36762e-05
4.54506e-07
9.37096e-05
4.50118e-07
9.37425e-05
4.42657e-07
9.37749e-05
4.32712e-07
9.38067e-05
4.2078e-07
9.38381e-05
4.0728e-07
9.38689e-05
3.92561e-07
9.38993e-05
3.76912e-07
9.39293e-05
3.60567e-07
9.3959e-05
3.43716e-07
9.39884e-05
3.26507e-07
9.40177e-05
3.09051e-07
9.40468e-05
2.9142e-07
9.4076e-05
2.73651e-07
9.41053e-05
2.55741e-07
9.41348e-05
2.37647e-07
9.41647e-05
2.1928e-07
9.41949e-05
2.00512e-07
9.42254e-05
1.81176e-07
9.42563e-05
1.61096e-07
9.42871e-05
1.40102e-07
1.18152e-07
9.43177e-05
9.60348e-05
3.9458e-08
9.60446e-05
1.16676e-07
9.60612e-05
1.87621e-07
9.60834e-05
2.48634e-07
9.61096e-05
2.9918e-07
9.61389e-05
3.39596e-07
9.61702e-05
3.70534e-07
9.62028e-05
3.93083e-07
9.62361e-05
4.08389e-07
9.62698e-05
4.17503e-07
9.63035e-05
4.2139e-07
9.63371e-05
4.20909e-07
9.63704e-05
4.16807e-07
9.64034e-05
4.09727e-07
9.64359e-05
4.00222e-07
9.64679e-05
3.88758e-07
9.64994e-05
3.7573e-07
9.65305e-05
3.61467e-07
9.65612e-05
3.46242e-07
9.65915e-05
3.30278e-07
9.66214e-05
3.13753e-07
9.66511e-05
2.96805e-07
9.66807e-05
2.79536e-07
9.67101e-05
2.62014e-07
9.67394e-05
2.44272e-07
9.67689e-05
2.26308e-07
9.67984e-05
2.08089e-07
9.68282e-05
1.89547e-07
9.68581e-05
1.70589e-07
9.68882e-05
1.51104e-07
9.69183e-05
1.30983e-07
9.69482e-05
1.10137e-07
8.85834e-08
9.69778e-05
9.87787e-05
3.65188e-08
9.87882e-05
1.0711e-07
9.88042e-05
1.7163e-07
9.88254e-05
2.2743e-07
9.88507e-05
2.7391e-07
9.8879e-05
3.11293e-07
9.89094e-05
3.40109e-07
9.89413e-05
3.61235e-07
9.8974e-05
3.75647e-07
9.90072e-05
3.84271e-07
9.90407e-05
3.87968e-07
9.90741e-05
3.87518e-07
9.91073e-05
3.83606e-07
9.91402e-05
3.76825e-07
9.91727e-05
3.67689e-07
9.92048e-05
3.56634e-07
9.92365e-05
3.44029e-07
9.92678e-05
3.30185e-07
9.92987e-05
3.15357e-07
9.93292e-05
2.99756e-07
9.93594e-05
2.83549e-07
9.93893e-05
2.66867e-07
9.94191e-05
2.49804e-07
9.94487e-05
2.32426e-07
9.94782e-05
2.14764e-07
9.95077e-05
1.96823e-07
9.95372e-05
1.78583e-07
9.95667e-05
1.59997e-07
9.95963e-05
1.41004e-07
9.96259e-05
1.21539e-07
9.96553e-05
1.01542e-07
9.96845e-05
8.09774e-08
5.98967e-08
9.97132e-05
0.000101601
3.34962e-08
0.00010161
9.77779e-08
0.000101625
1.56285e-07
0.000101646
2.07079e-07
0.00010167
2.49577e-07
0.000101698
2.83914e-07
0.000101727
3.10518e-07
0.000101758
3.30103e-07
0.00010179
3.43496e-07
0.000101823
3.51506e-07
0.000101856
3.54899e-07
0.000101889
3.54377e-07
0.000101922
3.50562e-07
0.000101955
3.44e-07
0.000101988
3.35165e-07
0.00010202
3.24462e-07
0.000102052
3.12235e-07
0.000102083
2.98775e-07
0.000102114
2.8432e-07
0.000102145
2.69069e-07
0.000102175
2.53178e-07
0.000102205
2.3677e-07
0.000102235
2.19937e-07
0.000102265
2.02741e-07
0.000102294
1.85217e-07
0.000102324
1.67377e-07
0.000102353
1.49213e-07
0.000102383
1.30701e-07
0.000102412
1.11807e-07
0.000102441
9.24991e-08
0.00010247
7.27547e-08
0.000102498
5.25721e-08
3.20208e-08
0.000102526
0.000104503
3.04718e-08
0.000104513
8.87038e-08
0.000104527
1.41535e-07
0.000104547
1.87511e-07
0.00010457
2.26112e-07
0.000104597
2.57403e-07
0.000104626
2.8173e-07
0.000104656
2.99676e-07
0.000104688
3.11939e-07
0.00010472
3.19224e-07
0.000104753
3.22207e-07
0.000104785
3.21515e-07
0.000104818
3.17711e-07
0.000104851
3.11294e-07
0.000104883
3.02697e-07
0.000104916
2.92294e-07
0.000104947
2.80404e-07
0.000104979
2.67296e-07
0.00010501
2.53195e-07
0.000105041
2.38284e-07
0.000105071
2.22712e-07
0.000105101
2.06595e-07
0.000105131
1.9002e-07
0.000105161
1.73049e-07
0.000105191
1.55722e-07
0.00010522
1.38058e-07
0.000105249
1.20063e-07
0.000105278
1.0173e-07
0.000105307
8.30485e-08
0.000105335
6.40108e-08
0.000105363
4.46211e-08
0.000105391
2.48983e-08
4.92064e-09
0.000105418
0.000107489
2.74915e-08
0.000107498
7.99007e-08
0.000107512
1.27333e-07
0.000107531
1.68666e-07
0.000107553
2.03451e-07
0.000107579
2.31705e-07
0.000107607
2.53705e-07
0.000107637
2.69931e-07
0.000107668
2.80969e-07
0.0001077
2.8743e-07
0.000107732
2.89906e-07
0.000107765
2.88956e-07
0.000107797
2.85085e-07
0.00010783
2.78743e-07
0.000107862
2.70325e-07
0.000107894
2.60176e-07
0.000107926
2.48586e-07
0.000107958
2.35806e-07
0.000107989
2.22044e-07
0.00010802
2.0747e-07
0.00010805
1.92224e-07
0.00010808
1.76416e-07
0.00010811
1.60132e-07
0.00010814
1.43433e-07
0.000108169
1.26363e-07
0.000108198
1.08949e-07
0.000108227
9.12073e-08
0.000108256
7.31474e-08
0.000108284
5.47758e-08
0.000108312
3.61036e-08
0.000108339
1.71518e-08
0.000108366
-2.04766e-09
-2.14139e-08
0.000108393
0.00011056
2.45794e-08
0.000110568
7.13706e-08
0.000110582
1.13637e-07
0.0001106
1.50485e-07
0.000110622
1.81531e-07
0.000110647
2.06764e-07
0.000110674
2.26403e-07
0.000110703
2.40841e-07
0.000110734
2.50573e-07
0.000110765
2.56121e-07
0.000110797
2.58006e-07
0.000110829
2.56717e-07
0.000110862
2.52706e-07
0.000110894
2.46377e-07
0.000110926
2.38088e-07
0.000110958
2.28149e-07
0.00011099
2.1683e-07
0.000111022
2.04357e-07
0.000111053
1.90924e-07
0.000111083
1.76688e-07
0.000111114
1.61782e-07
0.000111144
1.46308e-07
0.000111174
1.3035e-07
0.000111203
1.13971e-07
0.000111232
9.72165e-08
0.000111261
8.01223e-08
0.00011129
6.27135e-08
0.000111318
4.50109e-08
0.000111346
2.70348e-08
0.000111373
8.80886e-09
0.0001114
-9.63472e-09
0.000111426
-2.82567e-08
-4.69768e-08
0.000111451
0.000113718
2.17461e-08
0.000113727
6.31078e-08
0.00011374
1.00408e-07
0.000113757
1.32911e-07
0.000113779
1.60293e-07
0.000113803
1.82525e-07
0.000113829
1.99778e-07
0.000113858
2.12375e-07
0.000113888
2.20729e-07
0.000113919
2.2529e-07
0.00011395
2.26506e-07
0.000113982
2.24807e-07
0.000114014
2.20593e-07
0.000114046
2.14222e-07
0.000114078
2.06015e-07
0.00011411
1.96252e-07
0.000114142
1.85178e-07
0.000114173
1.72998e-07
0.000114204
1.59889e-07
0.000114235
1.45999e-07
0.000114265
1.31449e-07
0.000114295
1.16337e-07
0.000114325
1.00744e-07
0.000114354
8.47332e-08
0.000114383
6.83538e-08
0.000114412
5.16461e-08
0.00011444
3.46429e-08
0.000114467
1.7374e-08
0.000114494
-1.31169e-10
0.000114521
-1.78402e-08
0.000114547
-3.57142e-08
0.000114573
-5.37104e-08
-7.17507e-08
0.000114597
0.000116967
1.89945e-08
0.000116975
5.51009e-08
0.000116988
8.7606e-08
0.000117005
1.15891e-07
0.000117026
1.3968e-07
0.000117049
1.58933e-07
0.000117075
1.73782e-07
0.000117103
1.84494e-07
0.000117132
1.91413e-07
0.000117163
1.9492e-07
0.000117194
1.95402e-07
0.000117225
1.93231e-07
0.000117257
1.88756e-07
0.000117289
1.82296e-07
0.000117321
1.74133e-07
0.000117353
1.64517e-07
0.000117384
1.53668e-07
0.000117415
1.41772e-07
0.000117446
1.2899e-07
0.000117477
1.15456e-07
0.000117507
1.01284e-07
0.000117537
8.65653e-08
0.000117566
7.13783e-08
0.000117595
5.57853e-08
0.000117624
3.98382e-08
0.000117652
2.35808e-08
0.000117679
7.05136e-09
0.000117706
-9.71433e-09
0.000117733
-2.66805e-08
0.000117759
-4.38094e-08
0.000117784
-6.10585e-08
0.000117809
-7.83838e-08
-9.57109e-08
0.000117833
0.000120309
1.63231e-08
0.000120316
4.73348e-08
0.000120329
7.51958e-08
0.000120345
9.9374e-08
0.000120365
1.19634e-07
0.000120388
1.3593e-07
0.000120414
1.48366e-07
0.000120441
1.57157e-07
0.00012047
1.62592e-07
0.0001205
1.6499e-07
0.000120531
1.6468e-07
0.000120562
1.61984e-07
0.000120593
1.57203e-07
0.000120625
1.50612e-07
0.000120657
1.42462e-07
0.000120688
1.32972e-07
0.00012072
1.22336e-07
0.000120751
1.10721e-07
0.000120781
9.82711e-08
0.000120812
8.51098e-08
0.000120842
7.13402e-08
0.000120871
5.70495e-08
0.0001209
4.23108e-08
0.000120929
2.7186e-08
0.000120957
1.17276e-08
0.000120985
-4.01833e-09
0.000121012
-2.00101e-08
0.000121038
-3.6208e-08
0.000121064
-5.25726e-08
0.000121089
-6.90631e-08
0.000121114
-8.56359e-08
0.000121138
-1.02247e-07
-1.18826e-07
0.000121161
0.000123746
1.37276e-08
0.000123753
3.97922e-08
0.000123765
6.31417e-08
0.000123781
8.33116e-08
0.000123801
1.001e-07
0.000123823
1.13462e-07
0.000123848
1.23476e-07
0.000123875
1.30319e-07
0.000123904
1.34228e-07
0.000123933
1.3547e-07
0.000123963
1.34322e-07
0.000123994
1.31056e-07
0.000124026
1.25929e-07
0.000124057
1.19177e-07
0.000124088
1.11016e-07
0.00012412
1.01636e-07
0.000124151
9.12073e-08
0.000124182
7.98763e-08
0.000124212
6.77716e-08
0.000124242
5.50035e-08
0.000124272
4.16662e-08
0.000124301
2.78402e-08
0.00012433
1.35941e-08
0.000124358
-1.01203e-09
0.000124386
-1.59261e-08
0.000124413
-3.11014e-08
0.000124439
-4.64945e-08
0.000124465
-6.20639e-08
0.00012449
-7.77683e-08
0.000124515
-9.35659e-08
0.000124539
-1.09413e-07
0.000124562
-1.25268e-07
-1.41064e-07
0.000124584
0.000127281
1.12024e-08
0.000127288
3.2454e-08
0.0001273
5.14075e-08
0.000127316
6.76535e-08
0.000127335
8.10198e-08
0.000127357
9.14652e-08
0.000127381
9.9052e-08
0.000127408
1.03926e-07
0.000127436
1.06276e-07
0.000127465
1.06323e-07
0.000127495
1.04299e-07
0.000127525
1.00429e-07
0.000127556
9.49263e-08
0.000127588
8.79905e-08
0.000127619
7.98033e-08
0.00012765
7.05266e-08
0.000127681
6.03064e-08
0.000127711
4.92682e-08
0.000127742
3.75257e-08
0.000127772
2.51763e-08
0.000127801
1.23041e-08
0.00012783
-1.01735e-09
0.000127858
-1.47251e-08
0.000127886
-2.87615e-08
0.000127913
-4.30764e-08
0.000127939
-5.76235e-08
0.000127965
-7.23593e-08
0.000127991
-8.7242e-08
0.000128015
-1.0223e-07
0.000128039
-1.17282e-07
0.000128062
-1.32356e-07
0.000128084
-1.47412e-07
-1.62387e-07
0.000128105
0.000130917
8.74294e-09
0.000130924
2.53048e-08
0.000130936
3.99645e-08
0.000130951
5.23584e-08
0.00013097
6.23423e-08
0.000130991
6.98844e-08
0.000131016
7.50366e-08
0.000131042
7.79196e-08
0.000131069
7.86801e-08
0.000131098
7.75001e-08
0.000131128
7.457e-08
0.000131158
7.00697e-08
0.000131189
6.41703e-08
0.00013122
5.70368e-08
0.000131251
4.88173e-08
0.000131282
3.96451e-08
0.000131312
2.96428e-08
0.000131343
1.89125e-08
0.000131373
7.55661e-09
0.000131402
-4.34333e-09
0.000131431
-1.6713e-08
0.00013146
-2.94874e-08
0.000131487
-4.26082e-08
0.000131515
-5.60228e-08
0.000131541
-6.96833e-08
0.000131567
-8.35452e-08
0.000131592
-9.75664e-08
0.000131617
-1.11706e-07
0.000131641
-1.25923e-07
0.000131664
-1.40179e-07
0.000131686
-1.54433e-07
0.000131707
-1.68646e-07
-1.82763e-07
0.000131727
0.000134658
6.33907e-09
0.000134665
1.83187e-08
0.000134676
2.87684e-08
0.000134691
3.73643e-08
0.000134709
4.39936e-08
0.00013473
4.864e-08
0.000134754
5.13514e-08
0.00013478
5.22326e-08
0.000134807
5.13844e-08
0.000134836
4.89552e-08
0.000134865
4.50976e-08
0.000134895
3.99489e-08
0.000134926
3.3641e-08
0.000134956
2.63061e-08
0.000134987
1.8055e-08
0.000135018
8.99373e-09
0.000135048
-7.68208e-10
0.000135078
-1.11745e-08
0.000135108
-2.21147e-08
0.000135137
-3.35304e-08
0.000135166
-4.53573e-08
0.000135194
-5.75386e-08
0.000135221
-7.00229e-08
0.000135248
-8.27625e-08
0.000135274
-9.57133e-08
0.000135299
-1.08834e-07
0.000135324
-1.22084e-07
0.000135348
-1.35424e-07
0.00013537
-1.48817e-07
0.000135392
-1.62225e-07
0.000135414
-1.7561e-07
0.000135434
-1.88938e-07
-2.02154e-07
0.000135453
0.000138505
4.0034e-09
0.000138511
1.1512e-08
0.000138522
1.78303e-08
0.000138537
2.2666e-08
0.000138555
2.59457e-08
0.000138576
2.76803e-08
0.000138599
2.79268e-08
0.000138625
2.67751e-08
0.000138652
2.42773e-08
0.00013868
2.05781e-08
0.00013871
1.57869e-08
0.00013874
9.98793e-09
0.00013877
3.26523e-09
0.000138801
-4.2615e-09
0.000138831
-1.25244e-08
0.000138862
-2.14515e-08
0.000138892
-3.09633e-08
0.000138922
-4.09981e-08
0.000138951
-5.14868e-08
0.00013898
-6.23758e-08
0.000139008
-7.36134e-08
0.000139036
-8.51516e-08
0.000139063
-9.69461e-08
0.000139089
-1.08955e-07
0.000139114
-1.21139e-07
0.000139139
-1.3346e-07
0.000139163
-1.45882e-07
0.000139186
-1.58368e-07
0.000139208
-1.70884e-07
0.000139229
-1.83393e-07
0.000139249
-1.95862e-07
0.000139268
-2.08259e-07
-2.20535e-07
0.000139287
0.000142462
1.6742e-09
0.000142468
4.79045e-09
0.000142479
7.02898e-09
0.000142494
8.13242e-09
0.000142512
8.07379e-09
0.000142532
6.89255e-09
0.000142556
4.66814e-09
0.000142581
1.53796e-09
0.000142608
-2.62986e-09
0.000142636
-7.63467e-09
0.000142665
-1.3379e-08
0.000142695
-1.98347e-08
0.000142725
-2.69477e-08
0.000142756
-3.46615e-08
0.000142786
-4.2929e-08
0.000142816
-5.17009e-08
0.000142846
-6.09257e-08
0.000142876
-7.05594e-08
0.000142905
-8.05562e-08
0.000142933
-9.08741e-08
0.000142961
-1.01473e-07
0.000142988
-1.12316e-07
0.000143015
-1.23366e-07
0.00014304
-1.34588e-07
0.000143065
-1.45948e-07
0.000143089
-1.57412e-07
0.000143112
-1.68948e-07
0.000143134
-1.80524e-07
0.000143156
-1.92106e-07
0.000143176
-2.03665e-07
0.000143195
-2.15168e-07
0.000143213
-2.26586e-07
-2.37875e-07
0.000143231
0.000146531
-4.50506e-10
0.000146538
-1.58608e-09
0.000146548
-3.39713e-09
0.000146562
-6.09619e-09
0.00014658
-9.60427e-09
0.000146601
-1.38025e-08
0.000146624
-1.8592e-08
0.00014665
-2.38967e-08
0.000146677
-2.97087e-08
0.000146705
-3.59606e-08
0.000146734
-4.26274e-08
0.000146764
-4.97071e-08
0.000146794
-5.71867e-08
0.000146825
-6.50469e-08
0.000146855
-7.32698e-08
0.000146885
-8.18357e-08
0.000146915
-9.07208e-08
0.000146944
-9.99008e-08
0.000146973
-1.09349e-07
0.000147001
-1.19037e-07
0.000147029
-1.28938e-07
0.000147055
-1.39025e-07
0.000147081
-1.49269e-07
0.000147106
-1.59643e-07
0.000147131
-1.70117e-07
0.000147154
-1.80664e-07
0.000147176
-1.91255e-07
0.000147197
-2.01863e-07
0.000147218
-2.12459e-07
0.000147237
-2.23015e-07
0.000147255
-2.33503e-07
0.000147273
-2.43899e-07
-2.54161e-07
0.000147289
0.000150718
-2.93249e-09
0.000150725
-8.22292e-09
0.000150735
-1.39501e-08
0.00015075
-2.03129e-08
0.000150767
-2.71724e-08
0.000150788
-3.43469e-08
0.000150811
-4.16963e-08
0.000150836
-4.91251e-08
0.000150863
-5.66207e-08
0.000150891
-6.4176e-08
0.00015092
-7.17996e-08
0.00015095
-7.95204e-08
0.00015098
-8.73665e-08
0.000151011
-9.53599e-08
0.000151041
-1.03517e-07
0.000151071
-1.11849e-07
0.000151101
-1.20358e-07
0.00015113
-1.29041e-07
0.000151158
-1.37892e-07
0.000151186
-1.46898e-07
0.000151213
-1.56045e-07
0.000151239
-1.65316e-07
0.000151265
-1.74693e-07
0.000151289
-1.84156e-07
0.000151313
-1.93682e-07
0.000151336
-2.03249e-07
0.000151357
-2.12835e-07
0.000151378
-2.22415e-07
0.000151397
-2.31965e-07
0.000151416
-2.41461e-07
0.000151433
-2.50879e-07
0.000151449
-2.60197e-07
-2.69379e-07
0.000151465
0.000155023
-4.19839e-09
0.000155028
-1.35189e-08
0.000155038
-2.35559e-08
0.000155052
-3.42433e-08
0.00015507
-4.504e-08
0.000155091
-5.55772e-08
0.000155115
-6.56729e-08
0.000155141
-7.52745e-08
0.000155169
-8.44207e-08
0.000155198
-9.31775e-08
0.000155228
-1.01624e-07
0.000155258
-1.09848e-07
0.000155288
-1.17928e-07
0.000155319
-1.25929e-07
0.000155349
-1.33905e-07
0.000155379
-1.41896e-07
0.000155409
-1.4993e-07
0.000155438
-1.58026e-07
0.000155466
-1.66193e-07
0.000155494
-1.74436e-07
0.000155521
-1.82752e-07
0.000155546
-1.91134e-07
0.000155571
-1.99574e-07
0.000155595
-2.08058e-07
0.000155618
-2.16571e-07
0.00015564
-2.25096e-07
0.000155661
-2.33615e-07
0.00015568
-2.42109e-07
0.000155699
-2.50559e-07
0.000155716
-2.58944e-07
0.000155733
-2.67245e-07
0.000155748
-2.75443e-07
-2.83507e-07
0.000155762
0.000159455
-8.10505e-09
0.000159462
-2.06428e-08
0.000159472
-3.38835e-08
0.000159486
-4.78158e-08
0.000159502
-6.19577e-08
0.000159523
-7.57068e-08
0.000159546
-8.86526e-08
0.000159571
-1.00631e-07
0.000159598
-1.11656e-07
0.000159627
-1.21824e-07
0.000159656
-1.31264e-07
0.000159687
-1.40117e-07
0.000159717
-1.48514e-07
0.000159748
-1.5657e-07
0.000159778
-1.6438e-07
0.000159809
-1.7202e-07
0.000159838
-1.79549e-07
0.000159867
-1.87013e-07
0.000159895
-1.94443e-07
0.000159923
-2.01859e-07
0.000159949
-2.09276e-07
0.000159975
-2.16698e-07
0.000159999
-2.24126e-07
0.000160023
-2.31556e-07
0.000160045
-2.38981e-07
0.000160067
-2.4639e-07
0.000160087
-2.5377e-07
0.000160106
-2.61109e-07
0.000160124
-2.6839e-07
0.00016014
-2.75598e-07
0.000160156
-2.82716e-07
0.00016017
-2.89728e-07
-2.96609e-07
0.000160183
0.000164003
-5.47525e-09
0.000164005
-2.2475e-08
0.000164014
-4.21282e-08
0.000164028
-6.24749e-08
0.000164048
-8.18479e-08
0.000164072
-9.94919e-08
0.000164098
-1.15239e-07
0.000164127
-1.29198e-07
0.000164157
-1.41578e-07
0.000164188
-1.52616e-07
0.000164219
-1.62545e-07
0.000164251
-1.71585e-07
0.000164282
-1.79926e-07
0.000164313
-1.87726e-07
0.000164344
-1.95115e-07
0.000164374
-2.02197e-07
0.000164403
-2.09054e-07
0.000164432
-2.15746e-07
0.00016446
-2.22322e-07
0.000164487
-2.28813e-07
0.000164513
-2.35244e-07
0.000164538
-2.4163e-07
0.000164562
-2.47978e-07
0.000164585
-2.54292e-07
0.000164606
-2.60571e-07
0.000164627
-2.6681e-07
0.000164646
-2.73001e-07
0.000164664
-2.79135e-07
0.000164681
-2.85202e-07
0.000164696
-2.9119e-07
0.000164711
-2.97087e-07
0.000164724
-3.02881e-07
-3.08549e-07
0.000164736
0.000168701
-1.49442e-08
0.000168709
-3.0586e-08
0.000168717
-4.99379e-08
0.000168727
-7.21975e-08
0.000168741
-9.56018e-08
0.000168759
-1.17822e-07
0.000168781
-1.3765e-07
0.000168807
-1.54874e-07
0.000168835
-1.69713e-07
0.000168865
-1.82498e-07
0.000168896
-1.93572e-07
0.000168928
-2.03261e-07
0.00016896
-2.11849e-07
0.000168992
-2.19573e-07
0.000169023
-2.26629e-07
0.000169054
-2.33171e-07
0.000169084
-2.39323e-07
0.000169114
-2.45179e-07
0.000169142
-2.50812e-07
0.00016917
-2.56276e-07
0.000169196
-2.61611e-07
0.000169221
-2.66846e-07
0.000169245
-2.72e-07
0.000169268
-2.77085e-07
0.00016929
-2.82107e-07
0.00016931
-2.8707e-07
0.000169329
-2.9197e-07
0.000169347
-2.96804e-07
0.000169363
-3.01566e-07
0.000169378
-3.06248e-07
0.000169392
-3.1084e-07
0.000169404
-3.15335e-07
-3.19715e-07
0.000169415
0.000173491
5.19075e-09
0.000173485
-2.42318e-08
0.000173495
-5.97868e-08
0.000173516
-9.37688e-08
0.000173544
-1.23722e-07
0.000173576
-1.49041e-07
0.000173608
-1.70365e-07
0.000173642
-1.88272e-07
0.000173675
-2.03323e-07
0.000173709
-2.16015e-07
0.000173742
-2.26793e-07
0.000173775
-2.36041e-07
0.000173807
-2.44076e-07
0.000173839
-2.51151e-07
0.000173869
-2.57473e-07
0.0001739
-2.63204e-07
0.000173929
-2.68474e-07
0.000173957
-2.73384e-07
0.000173984
-2.78011e-07
0.00017401
-2.82417e-07
0.000174035
-2.86647e-07
0.000174059
-2.90735e-07
0.000174082
-2.94706e-07
0.000174103
-2.98577e-07
0.000174124
-3.0236e-07
0.000174143
-3.06062e-07
0.00017416
-3.09686e-07
0.000174177
-3.13232e-07
0.000174192
-3.16698e-07
0.000174206
-3.2008e-07
0.000174218
-3.23373e-07
0.000174229
-3.26571e-07
-3.2966e-07
0.000174239
0.000178498
-2.42533e-08
0.000178501
-2.67899e-08
0.00017849
-4.88157e-08
0.000178481
-8.50198e-08
0.000178483
-1.26177e-07
0.000178497
-1.62625e-07
0.000178519
-1.92313e-07
0.000178546
-2.15911e-07
0.000178578
-2.3475e-07
0.000178612
-2.49827e-07
0.000178647
-2.61941e-07
0.000178683
-2.71756e-07
0.000178718
-2.798e-07
0.000178754
-2.86481e-07
0.000178788
-2.92117e-07
0.000178822
-2.96951e-07
0.000178855
-3.01171e-07
0.000178886
-3.04918e-07
0.000178917
-3.08301e-07
0.000178946
-3.11402e-07
0.000178973
-3.14283e-07
0.000178999
-3.16989e-07
0.000179024
-3.19555e-07
0.000179048
-3.22004e-07
0.00017907
-3.24354e-07
0.00017909
-3.26618e-07
0.000179109
-3.28802e-07
0.000179127
-3.3091e-07
0.000179143
-3.32945e-07
0.000179158
-3.34906e-07
0.000179172
-3.36791e-07
0.000179184
-3.386e-07
-3.40322e-07
0.000179194
0.000183487
5.65645e-08
0.000183465
-4.81289e-09
0.000183501
-8.47399e-08
0.000183553
-1.37318e-07
0.000183604
-1.7751e-07
0.00018365
-2.08785e-07
0.000183692
-2.33671e-07
0.00018373
-2.54005e-07
0.000183766
-2.70509e-07
0.0001838
-2.83874e-07
0.000183832
-2.94758e-07
0.000183864
-3.0367e-07
0.000183896
-3.11005e-07
0.000183926
-3.17077e-07
0.000183956
-3.22139e-07
0.000183986
-3.26388e-07
0.000184014
-3.29983e-07
0.000184043
-3.33048e-07
0.00018407
-3.35681e-07
0.000184096
-3.37962e-07
0.000184122
-3.39951e-07
0.000184147
-3.41697e-07
0.000184171
-3.43238e-07
0.000184193
-3.44606e-07
0.000184215
-3.45822e-07
0.000184235
-3.46905e-07
0.000184254
-3.4787e-07
0.000184272
-3.48725e-07
0.000184288
-3.49478e-07
0.000184304
-3.50133e-07
0.000184317
-3.50692e-07
0.00018433
-3.51155e-07
-3.5152e-07
0.000184341
0.000188861
7.6455e-09
0.000188796
6.01506e-08
0.00018871
7.05168e-10
0.000188647
-7.37213e-08
0.000188629
-1.5917e-07
0.000188642
-2.22451e-07
0.000188675
-2.66068e-07
0.000188718
-2.97006e-07
0.000188767
-3.19483e-07
0.000188819
-3.36089e-07
0.000188872
-3.48463e-07
0.000188927
-3.5773e-07
0.00018898
-3.64686e-07
0.000189033
-3.699e-07
0.000189085
-3.73787e-07
0.000189135
-3.76647e-07
0.000189184
-3.78706e-07
0.000189231
-3.80132e-07
0.000189276
-3.81053e-07
0.00018932