/*--------------------------------*- C++ -*----------------------------------*\
| =========                 |                                                 |
| \\      /  F ield         | OpenFOAM: The Open Source CFD Toolbox           |
|  \\    /   O peration     | Version:  2.1.1                                 |
|   \\  /    A nd           | Web:      www.OpenFOAM.org                      |
|    \\/     M anipulation  |                                                 |
\*---------------------------------------------------------------------------*/
FoamFile
{
    version     2.0;
    format      ascii;
    class       volVectorField;
    location    "0.16";
    object      U;
}
// * * * * * * * * * * * * * * * * * * * * * * * * * * * * * * * * * * * * * //

dimensions      [0 1 -1 0 0 0 0];

internalField   nonuniform List<vector> 
6820
(
(8.34337 -0.360076 0)
(8.4011 -0.247154 0)
(8.3561 -0.115294 0)
(8.24781 -0.03656 0)
(8.11937 0.00600412 0)
(7.98595 0.0278643 0)
(7.85386 0.0386324 0)
(7.72648 0.0433304 0)
(7.60522 0.0446 0)
(7.49065 0.0438979 0)
(7.38297 0.0420657 0)
(7.28223 0.039608 0)
(7.18831 0.0368359 0)
(7.10098 0.0339449 0)
(7.01998 0.0310589 0)
(6.94499 0.0282552 0)
(6.87564 0.0255813 0)
(6.81159 0.023064 0)
(6.75247 0.0207169 0)
(6.69793 0.0185445 0)
(6.64762 0.0165458 0)
(6.6012 0.0147165 0)
(6.55836 0.0130515 0)
(6.51879 0.0115462 0)
(6.48218 0.0101993 0)
(6.44822 0.00901673 0)
(6.41658 0.00801693 0)
(6.38685 0.00725218 0)
(6.35853 0.00682608 0)
(6.33069 0.00700919 0)
(6.30181 0.00861291 0)
(6.26873 0.0124707 0)
(6.22242 0.0292846 0)
(8.32139 0.166251 0)
(8.28709 0.190002 0)
(8.28543 0.132155 0)
(8.3174 0.0958535 0)
(8.3617 0.075015 0)
(8.40175 0.0623506 0)
(8.43284 0.054865 0)
(8.45493 0.0503386 0)
(8.46887 0.0474302 0)
(8.47567 0.0454262 0)
(8.47637 0.0439318 0)
(8.47191 0.042709 0)
(8.46312 0.0416189 0)
(8.45073 0.0405843 0)
(8.43538 0.0395647 0)
(8.41761 0.0385412 0)
(8.39793 0.0375075 0)
(8.37673 0.0364647 0)
(8.35438 0.0354172 0)
(8.33118 0.0343716 0)
(8.30739 0.0333353 0)
(8.28323 0.0323165 0)
(8.25888 0.0313243 0)
(8.23448 0.0303703 0)
(8.21016 0.0294707 0)
(8.18602 0.0286494 0)
(8.16216 0.027949 0)
(8.1386 0.0274433 0)
(8.1156 0.0272713 0)
(8.0929 0.0277594 0)
(8.0726 0.0293443 0)
(8.05225 0.0340086 0)
(8.05206 0.0418874 0)
(8.3225 -0.0608851 0)
(8.31397 -0.0832805 0)
(8.3305 -0.054095 0)
(8.34432 -0.0202978 0)
(8.35319 0.00241183 0)
(8.36221 0.0165371 0)
(8.37194 0.025775 0)
(8.38197 0.0319905 0)
(8.39182 0.0362073 0)
(8.40109 0.0390705 0)
(8.40954 0.0409748 0)
(8.41705 0.0421641 0)
(8.42355 0.0428123 0)
(8.42902 0.0430504 0)
(8.43349 0.0429776 0)
(8.437 0.0426701 0)
(8.43959 0.0421873 0)
(8.44134 0.0415755 0)
(8.4423 0.0408715 0)
(8.44256 0.0401046 0)
(8.44216 0.0392985 0)
(8.44118 0.0384732 0)
(8.43967 0.0376467 0)
(8.4377 0.0368365 0)
(8.43531 0.0360633 0)
(8.43255 0.0353518 0)
(8.42947 0.0347448 0)
(8.42611 0.0342866 0)
(8.42257 0.0341192 0)
(8.4189 0.0342206 0)
(8.4156 0.0352596 0)
(8.41266 0.0355214 0)
(8.4114 0.0387876 0)
(8.33365 0.0145646 0)
(8.32976 0.0477027 0)
(8.32737 0.0539757 0)
(8.3287 0.0465622 0)
(8.33458 0.0410638 0)
(8.34211 0.0385597 0)
(8.3496 0.0377482 0)
(8.35682 0.0377013 0)
(8.36381 0.0379178 0)
(8.37052 0.0381773 0)
(8.37695 0.038381 0)
(8.38305 0.0384878 0)
(8.38882 0.0384879 0)
(8.39425 0.0383845 0)
(8.39931 0.0381858 0)
(8.40402 0.0379027 0)
(8.40837 0.0375473 0)
(8.41239 0.0371319 0)
(8.41607 0.0366685 0)
(8.41945 0.0361684 0)
(8.42253 0.0356425 0)
(8.42535 0.0351019 0)
(8.42791 0.0345581 0)
(8.43024 0.0340247 0)
(8.43236 0.033519 0)
(8.43429 0.0330636 0)
(8.43607 0.0326943 0)
(8.43772 0.0324534 0)
(8.43934 0.0324235 0)
(8.441 0.0326475 0)
(8.44313 0.0332971 0)
(8.44579 0.0341005 0)
(8.45031 0.0354299 0)
(8.3302 -0.00530901 0)
(8.32722 -0.00750385 0)
(8.33137 -0.00244529 0)
(8.33604 0.00804298 0)
(8.34011 0.0172175 0)
(8.34427 0.0234336 0)
(8.34868 0.0276159 0)
(8.35333 0.0305763 0)
(8.35814 0.0327159 0)
(8.363 0.0342668 0)
(8.36783 0.0353742 0)
(8.37257 0.0361323 0)
(8.3772 0.0366076 0)
(8.38168 0.0368514 0)
(8.386 0.0369059 0)
(8.39016 0.0368066 0)
(8.39415 0.0365835 0)
(8.39797 0.0362619 0)
(8.40162 0.0358636 0)
(8.40512 0.0354068 0)
(8.40848 0.0349079 0)
(8.41169 0.0343814 0)
(8.41477 0.0338418 0)
(8.41774 0.0333037 0)
(8.4206 0.0327843 0)
(8.42337 0.0323036 0)
(8.42609 0.0318899 0)
(8.42878 0.0315695 0)
(8.43153 0.0313937 0)
(8.43441 0.0313468 0)
(8.43767 0.0315147 0)
(8.44142 0.0314818 0)
(8.446 0.0314293 0)
(8.33238 0.00228872 0)
(8.33118 0.0133161 0)
(8.33279 0.0204066 0)
(8.33549 0.0238006 0)
(8.33893 0.0259551 0)
(8.34297 0.0277627 0)
(8.34719 0.0294379 0)
(8.35142 0.0309293 0)
(8.35566 0.0321563 0)
(8.35987 0.0331078 0)
(8.36403 0.0338059 0)
(8.36812 0.0342784 0)
(8.37214 0.0345538 0)
(8.37606 0.0346609 0)
(8.37989 0.0346263 0)
(8.38361 0.0344738 0)
(8.38723 0.0342242 0)
(8.39074 0.0338957 0)
(8.39415 0.0335042 0)
(8.39747 0.0330636 0)
(8.40069 0.0325867 0)
(8.40383 0.0320851 0)
(8.4069 0.0315705 0)
(8.4099 0.0310549 0)
(8.41285 0.0305518 0)
(8.41577 0.0300763 0)
(8.41867 0.0296472 0)
(8.42161 0.0292794 0)
(8.42464 0.0289935 0)
(8.42783 0.0287653 0)
(8.43134 0.0285867 0)
(8.43524 0.0282196 0)
(8.43964 0.0276126 0)
(8.33232 0.000877271 0)
(8.33151 0.00579696 0)
(8.3334 0.0107792 0)
(8.33644 0.0155831 0)
(8.33983 0.0199712 0)
(8.34347 0.0234829 0)
(8.3472 0.026165 0)
(8.35096 0.0282124 0)
(8.35475 0.0297618 0)
(8.35852 0.0309154 0)
(8.36227 0.0317503 0)
(8.36597 0.0323221 0)
(8.36961 0.0326742 0)
(8.37317 0.0328423 0)
(8.37667 0.0328568 0)
(8.38008 0.0327435 0)
(8.38342 0.0325246 0)
(8.38668 0.0322193 0)
(8.38987 0.0318441 0)
(8.39299 0.0314134 0)
(8.39604 0.03094 0)
(8.39905 0.0304356 0)
(8.402 0.0299111 0)
(8.40492 0.0293773 0)
(8.40782 0.0288452 0)
(8.41071 0.0283256 0)
(8.41362 0.0278296 0)
(8.41659 0.0273623 0)
(8.41965 0.0269255 0)
(8.42288 0.0264862 0)
(8.42635 0.0260056 0)
(8.43009 0.025316 0)
(8.43413 0.0243245 0)
(8.33272 0.00171468 0)
(8.33255 0.00730352 0)
(8.33416 0.0126045 0)
(8.33674 0.016875 0)
(8.33976 0.0203298 0)
(8.34313 0.0230567 0)
(8.34667 0.0252194 0)
(8.35026 0.0269512 0)
(8.35386 0.0283118 0)
(8.35744 0.0293476 0)
(8.36098 0.0301045 0)
(8.36447 0.0306227 0)
(8.36789 0.0309368 0)
(8.37125 0.0310777 0)
(8.37454 0.0310723 0)
(8.37776 0.0309442 0)
(8.38092 0.0307138 0)
(8.384 0.0303986 0)
(8.38703 0.0300139 0)
(8.39001 0.0295731 0)
(8.39294 0.0290875 0)
(8.39582 0.0285677 0)
(8.39867 0.0280231 0)
(8.40151 0.0274623 0)
(8.40433 0.0268933 0)
(8.40716 0.0263229 0)
(8.41002 0.0257556 0)
(8.41295 0.0251894 0)
(8.41597 0.0246149 0)
(8.41912 0.0239979 0)
(8.42246 0.0232912 0)
(8.426 0.0223821 0)
(8.4297 0.0211898 0)
(8.33284 0.00179453 0)
(8.33293 0.00647843 0)
(8.33442 0.0110028 0)
(8.33682 0.0149019 0)
(8.33968 0.0182761 0)
(8.34285 0.0210772 0)
(8.3462 0.0233319 0)
(8.34961 0.0251234 0)
(8.35303 0.0265175 0)
(8.35646 0.0275723 0)
(8.35984 0.028341 0)
(8.36318 0.0288679 0)
(8.36647 0.0291896 0)
(8.36969 0.0293371 0)
(8.37285 0.0293374 0)
(8.37594 0.0292135 0)
(8.37897 0.0289852 0)
(8.38195 0.0286696 0)
(8.38487 0.0282813 0)
(8.38774 0.027833 0)
(8.39057 0.0273355 0)
(8.39337 0.0267983 0)
(8.39614 0.0262295 0)
(8.3989 0.0256361 0)
(8.40165 0.0250237 0)
(8.40442 0.0243956 0)
(8.40723 0.0237518 0)
(8.41009 0.0230857 0)
(8.41303 0.0223829 0)
(8.41608 0.0216113 0)
(8.41927 0.0207267 0)
(8.42258 0.0196527 0)
(8.42598 0.0183292 0)
(8.33294 0.0018372 0)
(8.33322 0.00615811 0)
(8.33462 0.0103803 0)
(8.33681 0.0140561 0)
(8.33945 0.0172019 0)
(8.34241 0.0198064 0)
(8.34557 0.0219101 0)
(8.34881 0.0235925 0)
(8.3521 0.0249136 0)
(8.3554 0.0259215 0)
(8.35867 0.0266603 0)
(8.3619 0.027168 0)
(8.36508 0.0274773 0)
(8.36821 0.0276167 0)
(8.37127 0.027611 0)
(8.37428 0.0274818 0)
(8.37723 0.0272479 0)
(8.38012 0.0269252 0)
(8.38297 0.0265276 0)
(8.38577 0.0260667 0)
(8.38853 0.0255526 0)
(8.39126 0.0249936 0)
(8.39397 0.0243966 0)
(8.39667 0.023767 0)
(8.39937 0.0231082 0)
(8.40208 0.022421 0)
(8.40483 0.0217023 0)
(8.40762 0.0209435 0)
(8.41048 0.0201283 0)
(8.41342 0.0192288 0)
(8.41644 0.0182085 0)
(8.41955 0.0170158 0)
(8.42269 0.0156111 0)
(8.33299 0.00180141 0)
(8.33338 0.00573392 0)
(8.33468 0.00955695 0)
(8.3367 0.0129352 0)
(8.33916 0.0158598 0)
(8.34193 0.0183231 0)
(8.34491 0.0203422 0)
(8.348 0.0219696 0)
(8.35115 0.0232532 0)
(8.35431 0.0242353 0)
(8.35747 0.0249562 0)
(8.3606 0.0254519 0)
(8.36369 0.0257532 0)
(8.36673 0.0258872 0)
(8.36972 0.0258776 0)
(8.37265 0.0257447 0)
(8.37554 0.0255061 0)
(8.37837 0.0251771 0)
(8.38116 0.0247704 0)
(8.3839 0.0242971 0)
(8.38661 0.0237661 0)
(8.38929 0.023185 0)
(8.39195 0.0225594 0)
(8.3946 0.0218934 0)
(8.39725 0.0211887 0)
(8.39991 0.0204444 0)
(8.40259 0.0196559 0)
(8.40531 0.0188136 0)
(8.40808 0.0179023 0)
(8.41091 0.0168988 0)
(8.41379 0.0157747 0)
(8.41671 0.0144954 0)
(8.41964 0.0130368 0)
(8.33301 0.00172444 0)
(8.33346 0.00533256 0)
(8.33468 0.00882789 0)
(8.33655 0.0119546 0)
(8.33883 0.014677 0)
(8.34143 0.0169854 0)
(8.34424 0.0188902 0)
(8.34717 0.0204317 0)
(8.35018 0.021652 0)
(8.35322 0.0225887 0)
(8.35626 0.0232774 0)
(8.35929 0.0237502 0)
(8.36229 0.0240353 0)
(8.36525 0.0241576 0)
(8.36816 0.0241388 0)
(8.37103 0.0239979 0)
(8.37385 0.0237512 0)
(8.37663 0.0234128 0)
(8.37936 0.0229946 0)
(8.38206 0.0225068 0)
(8.38472 0.0219573 0)
(8.38735 0.0213528 0)
(8.38997 0.020698 0)
(8.39257 0.0199956 0)
(8.39517 0.0192464 0)
(8.39778 0.0184484 0)
(8.4004 0.0175964 0)
(8.40305 0.0166811 0)
(8.40573 0.0156891 0)
(8.40844 0.0146022 0)
(8.41118 0.0133992 0)
(8.41394 0.0120574 0)
(8.41669 0.0105632 0)
(8.33303 0.00162331 0)
(8.33349 0.00493159 0)
(8.33465 0.00811758 0)
(8.33637 0.0109912 0)
(8.3385 0.0135083 0)
(8.34093 0.0156585 0)
(8.34358 0.017447 0)
(8.34636 0.0189027 0)
(8.34923 0.0200594 0)
(8.35214 0.0209492 0)
(8.35507 0.0216032 0)
(8.358 0.0220502 0)
(8.36091 0.0223159 0)
(8.36378 0.0224233 0)
(8.36662 0.0223923 0)
(8.36942 0.0222407 0)
(8.37218 0.0219835 0)
(8.3749 0.0216338 0)
(8.37758 0.0212026 0)
(8.38022 0.0206989 0)
(8.38283 0.0201302 0)
(8.38542 0.019502 0)
(8.38799 0.0188182 0)
(8.39054 0.0180809 0)
(8.39309 0.0172899 0)
(8.39564 0.0164428 0)
(8.3982 0.0155344 0)
(8.40077 0.0145566 0)
(8.40336 0.0134981 0)
(8.40596 0.0123452 0)
(8.40858 0.0110826 0)
(8.41119 0.00969578 0)
(8.41378 0.00817795 0)
(8.33304 0.00150965 0)
(8.3335 0.00453862 0)
(8.33458 0.00744099 0)
(8.33619 0.0100755 0)
(8.33817 0.0123954 0)
(8.34045 0.014388 0)
(8.34294 0.016055 0)
(8.34558 0.0174169 0)
(8.34832 0.0185013 0)
(8.35111 0.0193358 0)
(8.35392 0.0199475 0)
(8.35675 0.0203621 0)
(8.35956 0.0206028 0)
(8.36235 0.0206902 0)
(8.36511 0.0206429 0)
(8.36784 0.0204769 0)
(8.37053 0.0202061 0)
(8.37319 0.0198425 0)
(8.37581 0.0193961 0)
(8.3784 0.0188751 0)
(8.38096 0.018286 0)
(8.3835 0.0176338 0)
(8.38601 0.0169216 0)
(8.38851 0.0161509 0)
(8.391 0.0153211 0)
(8.39349 0.0144298 0)
(8.39598 0.0134724 0)
(8.39847 0.0124418 0)
(8.40096 0.0113293 0)
(8.40346 0.0101247 0)
(8.40595 0.00881759 0)
(8.40843 0.00739869 0)
(8.41087 0.00586576 0)
(8.33304 0.00139047 0)
(8.33349 0.00415447 0)
(8.33451 0.00679148 0)
(8.336 0.00919531 0)
(8.33785 0.0113214 0)
(8.33999 0.0131555 0)
(8.34234 0.014697 0)
(8.34485 0.0159604 0)
(8.34745 0.0169677 0)
(8.35012 0.017742 0)
(8.35282 0.0183067 0)
(8.35554 0.0186843 0)
(8.35826 0.0188957 0)
(8.36097 0.0189594 0)
(8.36365 0.0188922 0)
(8.3663 0.0187088 0)
(8.36892 0.0184218 0)
(8.37152 0.0180421 0)
(8.37408 0.0175788 0)
(8.37661 0.0170393 0)
(8.37911 0.0164294 0)
(8.38159 0.0157534 0)
(8.38405 0.0150139 0)
(8.38649 0.0142119 0)
(8.38892 0.013347 0)
(8.39134 0.0124168 0)
(8.39375 0.0114173 0)
(8.39615 0.010343 0)
(8.39855 0.00918733 0)
(8.40094 0.00794293 0)
(8.40332 0.00660302 0)
(8.40567 0.00516203 0)
(8.40798 0.00362036 0)
(8.33304 0.00126993 0)
(8.33347 0.00378059 0)
(8.33443 0.00616784 0)
(8.33582 0.00835023 0)
(8.33756 0.0102873 0)
(8.33956 0.011964 0)
(8.34178 0.0133777 0)
(8.34415 0.0145385 0)
(8.34663 0.0154636 0)
(8.34919 0.0161724 0)
(8.35178 0.0166849 0)
(8.3544 0.0170207 0)
(8.35702 0.0171982 0)
(8.35964 0.0172342 0)
(8.36224 0.0171436 0)
(8.36482 0.0169397 0)
(8.36737 0.0166339 0)
(8.3699 0.0162361 0)
(8.37239 0.0157545 0)
(8.37486 0.0151956 0)
(8.3773 0.0145647 0)
(8.37972 0.0138655 0)
(8.38211 0.0131002 0)
(8.38449 0.0122697 0)
(8.38685 0.0113734 0)
(8.38919 0.0104094 0)
(8.39153 0.00937465 0)
(8.39384 0.00826492 0)
(8.39615 0.00707538 0)
(8.39843 0.00580111 0)
(8.40069 0.00443787 0)
(8.40292 0.0029826 0)
(8.4051 0.00143729 0)
(8.33304 0.00115043 0)
(8.33345 0.00341764 0)
(8.33435 0.00556784 0)
(8.33565 0.00753689 0)
(8.33728 0.00928912 0)
(8.33916 0.0108092 0)
(8.34126 0.0120933 0)
(8.34351 0.0131481 0)
(8.34587 0.013987 0)
(8.34831 0.0146258 0)
(8.3508 0.0150817 0)
(8.35332 0.0153715 0)
(8.35585 0.0155114 0)
(8.35838 0.0155161 0)
(8.3609 0.015399 0)
(8.3634 0.015172 0)
(8.36588 0.0148454 0)
(8.36833 0.0144279 0)
(8.37076 0.0139269 0)
(8.37316 0.0133482 0)
(8.37554 0.0126966 0)
(8.37789 0.0119751 0)
(8.38022 0.0111859 0)
(8.38252 0.0103297 0)
(8.38481 0.00940609 0)
(8.38708 0.00841367 0)
(8.38932 0.0073501 0)
(8.39155 0.00621237 0)
(8.39375 0.00499719 0)
(8.39593 0.00370144 0)
(8.39808 0.00232273 0)
(8.40019 0.000859648 0)
(8.40226 -0.000684909 0)
(8.33304 0.0010333 0)
(8.33343 0.00306586 0)
(8.33427 0.0049897 0)
(8.33549 0.00675289 0)
(8.33702 0.00832444 0)
(8.33879 0.00968928 0)
(8.34077 0.0108427 0)
(8.34291 0.0117889 0)
(8.34516 0.012538 0)
(8.34749 0.0131031 0)
(8.34988 0.0134984 0)
(8.3523 0.0137383 0)
(8.35474 0.013837 0)
(8.35718 0.0138072 0)
(8.35962 0.0136609 0)
(8.36204 0.0134085 0)
(8.36445 0.0130592 0)
(8.36683 0.0126207 0)
(8.36919 0.0120996 0)
(8.37152 0.0115012 0)
(8.37383 0.0108294 0)
(8.37611 0.0100871 0)
(8.37837 0.00927628 0)
(8.3806 0.00839755 0)
(8.38281 0.0074508 0)
(8.38499 0.00643506 0)
(8.38715 0.00534873 0)
(8.38929 0.00418984 0)
(8.3914 0.00295631 0)
(8.39347 0.00164634 0)
(8.39551 0.000258862 0)
(8.39751 -0.00120643 0)
(8.39946 -0.00274619 0)
(8.33303 0.000919153 0)
(8.33341 0.00272514 0)
(8.3342 0.0044317 0)
(8.33535 0.00599577 0)
(8.33678 0.00739051 0)
(8.33845 0.00860158 0)
(8.34033 0.00962369 0)
(8.34236 0.0104591 0)
(8.3445 0.0111156 0)
(8.34673 0.0116034 0)
(8.34902 0.0119346 0)
(8.35134 0.0121213 0)
(8.35369 0.0121756 0)
(8.35605 0.0121086 0)
(8.35841 0.0119306 0)
(8.36075 0.0116509 0)
(8.36308 0.0112774 0)
(8.36539 0.010817 0)
(8.36768 0.0102755 0)
(8.36994 0.00965756 0)
(8.37218 0.00896664 0)
(8.37439 0.00820537 0)
(8.37657 0.0073754 0)
(8.37873 0.00647755 0)
(8.38085 0.00551188 0)
(8.38296 0.00447787 0)
(8.38503 0.00337457 0)
(8.38707 0.00220082 0)
(8.38908 0.000955483 0)
(8.39105 -0.000362225 0)
(8.39298 -0.00175249 0)
(8.39487 -0.00321491 0)
(8.39672 -0.00474591 0)
(8.33303 0.000808239 0)
(8.33338 0.00239508 0)
(8.33413 0.00389225 0)
(8.33521 0.00526324 0)
(8.33656 0.00648488 0)
(8.33814 0.00754378 0)
(8.33992 0.00843436 0)
(8.34184 0.00915758 0)
(8.34389 0.009719 0)
(8.34602 0.0101269 0)
(8.34822 0.0103911 0)
(8.35045 0.0105217 0)
(8.35271 0.0105289 0)
(8.35499 0.0104222 0)
(8.35726 0.0102107 0)
(8.35953 0.00990205 0)
(8.36179 0.0095034 0)
(8.36402 0.00902067 0)
(8.36624 0.00845886 0)
(8.36843 0.00782204 0)
(8.37059 0.00711333 0)
(8.37272 0.00633506 0)
(8.37483 0.00548876 0)
(8.37691 0.00457529 0)
(8.37896 0.00359493 0)
(8.38097 0.00254756 0)
(8.38296 0.00143273 0)
(8.3849 0.000249954 0)
(8.38682 -0.00100119 0)
(8.38869 -0.00232078 0)
(8.39052 -0.00370839 0)
(8.3923 -0.00516318 0)
(8.39403 -0.00668151 0)
(8.33303 0.000700563 0)
(8.33336 0.00207514 0)
(8.33407 0.00336976 0)
(8.33508 0.00455304 0)
(8.33636 0.00560491 0)
(8.33785 0.00651312 0)
(8.33954 0.00727203 0)
(8.34137 0.00788162 0)
(8.34333 0.00834586 0)
(8.34537 0.00867123 0)
(8.34747 0.00886561 0)
(8.34962 0.00893741 0)
(8.3518 0.00889509 0)
(8.35399 0.00874674 0)
(8.35619 0.00849983 0)
(8.35838 0.00816113 0)
(8.36056 0.00773659 0)
(8.36272 0.00723131 0)
(8.36486 0.00664961 0)
(8.36698 0.005995 0)
(8.36907 0.00527021 0)
(8.37113 0.0044773 0)
(8.37316 0.00361769 0)
(8.37515 0.0026923 0)
(8.37712 0.00170158 0)
(8.37905 0.000645708 0)
(8.38094 -0.000475321 0)
(8.3828 -0.00166153 0)
(8.38461 -0.00291279 0)
(8.38638 -0.00422871 0)
(8.38811 -0.00560845 0)
(8.38979 -0.00705088 0)
(8.39142 -0.00855242 0)
(8.33303 0.000595997 0)
(8.33334 0.00176465 0)
(8.33401 0.00286281 0)
(8.33497 0.00386326 0)
(8.33617 0.00474866 0)
(8.33759 0.00550799 0)
(8.3392 0.00613577 0)
(8.34094 0.00663134 0)
(8.34281 0.00699735 0)
(8.34476 0.00723872 0)
(8.34678 0.00736169 0)
(8.34885 0.00737305 0)
(8.35095 0.00727967 0)
(8.35306 0.00708824 0)
(8.35518 0.00680498 0)
(8.3573 0.00643551 0)
(8.3594 0.00598483 0)
(8.36149 0.00545723 0)
(8.36356 0.00485637 0)
(8.3656 0.00418524 0)
(8.36761 0.0034462 0)
(8.3696 0.00264109 0)
(8.37155 0.00177121 0)
(8.37347 0.000837478 0)
(8.37535 -0.000159482 0)
(8.37719 -0.00121927 0)
(8.37899 -0.00234159 0)
(8.38076 -0.00352608 0)
(8.38248 -0.00477226 0)
(8.38415 -0.00607941 0)
(8.38578 -0.00744642 0)
(8.38735 -0.00887203 0)
(8.38888 -0.0103528 0)
(8.33303 0.00049434 0)
(8.33332 0.00146279 0)
(8.33395 0.00236966 0)
(8.33486 0.00319111 0)
(8.336 0.00391216 0)
(8.33736 0.00452314 0)
(8.33888 0.00501897 0)
(8.34055 0.00539868 0)
(8.34234 0.00566398 0)
(8.34421 0.00581864 0)
(8.34615 0.0058676 0)
(8.34814 0.00581619 0)
(8.35016 0.00566983 0)
(8.3522 0.00543388 0)
(8.35425 0.00511333 0)
(8.35629 0.00471272 0)
(8.35832 0.00423611 0)
(8.36034 0.00368695 0)
(8.36233 0.00306831 0)
(8.3643 0.00238266 0)
(8.36623 0.00163196 0)
(8.36814 0.000817779 0)
(8.37001 -5.86764e-05 0)
(8.37185 -0.000996516 0)
(8.37365 -0.00199506 0)
(8.37541 -0.00305373 0)
(8.37712 -0.00417202 0)
(8.37879 -0.00534932 0)
(8.38042 -0.00658492 0)
(8.382 -0.00787787 0)
(8.38352 -0.00922692 0)
(8.385 -0.0106308 0)
(8.38643 -0.012086 0)
(8.33303 0.000395387 0)
(8.33331 0.0011691 0)
(8.3339 0.00188989 0)
(8.33476 0.002537 0)
(8.33585 0.00309771 0)
(8.33714 0.00356371 0)
(8.3386 0.00393036 0)
(8.34019 0.00419647 0)
(8.34191 0.00436269 0)
(8.34371 0.00443161 0)
(8.34557 0.0044069 0)
(8.34749 0.00429263 0)
(8.34944 0.00409301 0)
(8.35141 0.00381223 0)
(8.35338 0.00345413 0)
(8.35535 0.00302222 0)
(8.35731 0.0025199 0)
(8.35925 0.00194957 0)
(8.36118 0.0013139 0)
(8.36307 0.000614933 0)
(8.36493 -0.00014574 0)
(8.36676 -0.000966799 0)
(8.36856 -0.00184716 0)
(8.37031 -0.002786 0)
(8.37203 -0.00378258 0)
(8.3737 -0.00483625 0)
(8.37533 -0.00594636 0)
(8.37691 -0.00711215 0)
(8.37845 -0.00833275 0)
(8.37993 -0.00960711 0)
(8.38136 -0.0109339 0)
(8.38274 -0.0123119 0)
(8.38406 -0.0137377 0)
(8.33303 0.00029881 0)
(8.33329 0.000881817 0)
(8.33386 0.00141876 0)
(8.33468 0.00189121 0)
(8.33571 0.00228875 0)
(8.33695 0.00260493 0)
(8.33834 0.00283639 0)
(8.33988 0.00298232 0)
(8.34152 0.00304313 0)
(8.34325 0.00302137 0)
(8.34505 0.00291965 0)
(8.3469 0.00274039 0)
(8.34878 0.00248619 0)
(8.35068 0.00216037 0)
(8.35258 0.00176558 0)
(8.35449 0.00130407 0)
(8.35638 0.000777997 0)
(8.35825 0.000189874 0)
(8.3601 -0.000458907 0)
(8.36192 -0.0011669 0)
(8.36371 -0.00193282 0)
(8.36547 -0.00275559 0)
(8.36719 -0.00363435 0)
(8.36886 -0.00456834 0)
(8.3705 -0.00555685 0)
(8.37208 -0.00659921 0)
(8.37363 -0.0076947 0)
(8.37512 -0.0088425 0)
(8.37656 -0.0100417 0)
(8.37795 -0.0112911 0)
(8.37929 -0.0125894 0)
(8.38058 -0.0139354 0)
(8.3818 -0.015326 0)
(8.33302 0.000204831 0)
(8.33327 0.000604035 0)
(8.33381 0.000966254 0)
(8.33459 0.00127544 0)
(8.33558 0.0015228 0)
(8.33676 0.00170277 0)
(8.3381 0.00181211 0)
(8.33958 0.00185052 0)
(8.34116 0.00181486 0)
(8.34284 0.00170697 0)
(8.34458 0.00153023 0)
(8.34637 0.00128659 0)
(8.34818 0.000977937 0)
(8.35002 0.000605604 0)
(8.35186 0.00017155 0)
(8.3537 -0.000322162 0)
(8.35553 -0.000874135 0)
(8.35733 -0.00148253 0)
(8.35912 -0.00214651 0)
(8.36087 -0.00286507 0)
(8.36259 -0.00363722 0)
(8.36427 -0.00446219 0)
(8.36591 -0.00533927 0)
(8.36751 -0.00626782 0)
(8.36906 -0.00724721 0)
(8.37057 -0.00827677 0)
(8.37203 -0.00935578 0)
(8.37343 -0.0104834 0)
(8.37479 -0.0116587 0)
(8.37609 -0.0128806 0)
(8.37733 -0.0141479 0)
(8.37853 -0.0154592 0)
(8.37966 -0.0168118 0)
(8.33302 0.000111486 0)
(8.33327 0.000322207 0)
(8.33378 0.00049564 0)
(8.33453 0.000618717 0)
(8.33548 0.000687749 0)
(8.33662 0.00070182 0)
(8.33791 0.000661148 0)
(8.33934 0.000565268 0)
(8.34087 0.000418739 0)
(8.34248 0.000220281 0)
(8.34416 -3.21927e-05 0)
(8.34589 -0.000338315 0)
(8.34765 -0.000697298 0)
(8.34943 -0.00110926 0)
(8.35121 -0.00157359 0)
(8.35299 -0.00208944 0)
(8.35475 -0.00265622 0)
(8.35649 -0.00327386 0)
(8.35821 -0.00394162 0)
(8.35989 -0.004659 0)
(8.36154 -0.0054256 0)
(8.36315 -0.00624098 0)
(8.36472 -0.00710469 0)
(8.36624 -0.00801626 0)
(8.36772 -0.00897517 0)
(8.36915 -0.00998083 0)
(8.37052 -0.0110325 0)
(8.37185 -0.0121295 0)
(8.37311 -0.0132708 0)
(8.37433 -0.0144553 0)
(8.37549 -0.0156819 0)
(8.37659 -0.0169494 0)
(8.37763 -0.018255 0)
(8.33302 2.62047e-05 0)
(8.33324 7.98594e-05 0)
(8.33372 0.000112656 0)
(8.33443 0.000108104 0)
(8.33534 5.89917e-05 0)
(8.33643 -3.81851e-05 0)
(8.33769 -0.000184362 0)
(8.33908 -0.000380017 0)
(8.34058 -0.000619968 0)
(8.34216 -0.000904681 0)
(8.3438 -0.00123571 0)
(8.34548 -0.0016124 0)
(8.3472 -0.00203418 0)
(8.34892 -0.00250031 0)
(8.35065 -0.00301062 0)
(8.35237 -0.00356518 0)
(8.35408 -0.00416389 0)
(8.35576 -0.00480664 0)
(8.35742 -0.00549324 0)
(8.35904 -0.00622359 0)
(8.36062 -0.00699757 0)
(8.36216 -0.00781503 0)
(8.36366 -0.00867573 0)
(8.36511 -0.00957942 0)
(8.36651 -0.0105257 0)
(8.36786 -0.0115142 0)
(8.36916 -0.0125443 0)
(8.3704 -0.0136154 0)
(8.37158 -0.0147265 0)
(8.37271 -0.0158769 0)
(8.37378 -0.0170654 0)
(8.3748 -0.018291 0)
(8.37575 -0.0195513 0)
(8.33303 -7.42787e-05 0)
(8.33326 -0.000246737 0)
(8.33374 -0.000465238 0)
(8.33443 -0.000728172 0)
(8.33531 -0.00102141 0)
(8.33637 -0.00133375 0)
(8.33758 -0.00165996 0)
(8.33892 -0.0019982 0)
(8.34037 -0.00235356 0)
(8.3419 -0.00272853 0)
(8.34349 -0.00312505 0)
(8.34512 -0.00354664 0)
(8.34678 -0.00399677 0)
(8.34846 -0.00447833 0)
(8.35014 -0.00499375 0)
(8.3518 -0.00554497 0)
(8.35345 -0.0061334 0)
(8.35508 -0.00676015 0)
(8.35668 -0.00742602 0)
(8.35824 -0.00813156 0)
(8.35976 -0.00887712 0)
(8.36124 -0.00966287 0)
(8.36267 -0.0104888 0)
(8.36405 -0.0113548 0)
(8.36538 -0.0122607 0)
(8.36665 -0.0132059 0)
(8.36788 -0.0141899 0)
(8.36904 -0.0152122 0)
(8.37015 -0.0162718 0)
(8.3712 -0.0173679 0)
(8.37219 -0.0184994 0)
(8.37312 -0.0196653 0)
(8.37399 -0.0208632 0)
(8.333 -0.000119107 0)
(8.33315 -0.000320785 0)
(8.33355 -0.000528493 0)
(8.33418 -0.000778745 0)
(8.33504 -0.00108323 0)
(8.3361 -0.00143997 0)
(8.33732 -0.00184083 0)
(8.33868 -0.00227696 0)
(8.34013 -0.00274187 0)
(8.34166 -0.00323073 0)
(8.34325 -0.00374121 0)
(8.34487 -0.00427296 0)
(8.34651 -0.00482644 0)
(8.34816 -0.00540257 0)
(8.3498 -0.00600261 0)
(8.35142 -0.00662799 0)
(8.35303 -0.00728013 0)
(8.3546 -0.00796033 0)
(8.35614 -0.0086698 0)
(8.35765 -0.00940954 0)
(8.35911 -0.0101804 0)
(8.36052 -0.0109831 0)
(8.36188 -0.0118181 0)
(8.36319 -0.0126857 0)
(8.36445 -0.0135862 0)
(8.36566 -0.0145194 0)
(8.3668 -0.0154853 0)
(8.36789 -0.0164835 0)
(8.36892 -0.0175135 0)
(8.36989 -0.0185747 0)
(8.3708 -0.0196664 0)
(8.37165 -0.0207878 0)
(8.37244 -0.021937 0)
(8.33306 -0.000316023 0)
(8.33334 -0.00102086 0)
(8.3338 -0.00180364 0)
(8.33442 -0.00259623 0)
(8.33522 -0.00334278 0)
(8.33619 -0.00402322 0)
(8.33732 -0.00463929 0)
(8.33859 -0.0052017 0)
(8.33997 -0.00572449 0)
(8.34144 -0.00622143 0)
(8.34296 -0.0067048 0)
(8.34453 -0.00718523 0)
(8.34613 -0.00767151 0)
(8.34773 -0.00817068 0)
(8.34933 -0.00868831 0)
(8.35092 -0.0092287 0)
(8.35248 -0.00979512 0)
(8.35401 -0.01039 0)
(8.35551 -0.0110152 0)
(8.35696 -0.0116719 0)
(8.35838 -0.012361 0)
(8.35974 -0.013083 0)
(8.36105 -0.0138383 0)
(8.3623 -0.0146268 0)
(8.3635 -0.0154484 0)
(8.36465 -0.0163029 0)
(8.36573 -0.0171897 0)
(8.36675 -0.0181083 0)
(8.36772 -0.0190579 0)
(8.36862 -0.0200379 0)
(8.36946 -0.0210472 0)
(8.37024 -0.022085 0)
(8.37095 -0.0231493 0)
(8.33294 -7.3318e-05 0)
(8.33286 -0.000133325 0)
(8.33308 -0.000261049 0)
(8.33367 -0.000581507 0)
(8.33456 -0.00109881 0)
(8.33569 -0.00175607 0)
(8.33698 -0.0024941 0)
(8.33839 -0.0032709 0)
(8.33988 -0.00406042 0)
(8.34143 -0.00484737 0)
(8.34301 -0.00562399 0)
(8.34461 -0.00638778 0)
(8.34621 -0.0071395 0)
(8.3478 -0.00788175 0)
(8.34937 -0.00861803 0)
(8.35092 -0.00935221 0)
(8.35244 -0.0100881 0)
(8.35392 -0.0108294 0)
(8.35536 -0.0115792 0)
(8.35676 -0.0123406 0)
(8.3581 -0.0131159 0)
(8.3594 -0.0139073 0)
(8.36064 -0.0147166 0)
(8.36182 -0.015545 0)
(8.36295 -0.0163938 0)
(8.36401 -0.0172637 0)
(8.36502 -0.0181553 0)
(8.36597 -0.0190688 0)
(8.36686 -0.0200044 0)
(8.36768 -0.0209621 0)
(8.36844 -0.0219414 0)
(8.36914 -0.0229422 0)
(8.36978 -0.0239631 0)
(8.33317 -0.000775272 0)
(8.33367 -0.00267017 0)
(8.33407 -0.00462893 0)
(8.33446 -0.0063039 0)
(8.33501 -0.00762229 0)
(8.33581 -0.00863944 0)
(8.33682 -0.00942983 0)
(8.33802 -0.0100575 0)
(8.33936 -0.0105739 0)
(8.3408 -0.0110192 0)
(8.34231 -0.0114235 0)
(8.34386 -0.0118091 0)
(8.34544 -0.012192 0)
(8.34702 -0.0125835 0)
(8.34858 -0.0129916 0)
(8.35013 -0.0134215 0)
(8.35164 -0.0138771 0)
(8.35312 -0.0143606 0)
(8.35455 -0.0148735 0)
(8.35594 -0.0154166 0)
(8.35727 -0.0159903 0)
(8.35854 -0.0165946 0)
(8.35976 -0.0172291 0)
(8.36091 -0.0178937 0)
(8.36201 -0.0185877 0)
(8.36304 -0.0193105 0)
(8.36401 -0.0200614 0)
(8.36492 -0.0208396 0)
(8.36576 -0.0216442 0)
(8.36654 -0.0224745 0)
(8.36725 -0.0233296 0)
(8.36789 -0.0242085 0)
(8.36848 -0.0251096 0)
(8.33263 0.000572812 0)
(8.33174 0.00198466 0)
(8.33174 0.00285509 0)
(8.33258 0.00276143 0)
(8.33385 0.00191046 0)
(8.3353 0.000662829 0)
(8.33685 -0.000746456 0)
(8.33844 -0.00219339 0)
(8.34006 -0.0036113 0)
(8.34167 -0.00496444 0)
(8.34328 -0.00623759 0)
(8.34486 -0.00742854 0)
(8.34643 -0.00854211 0)
(8.34796 -0.00958651 0)
(8.34946 -0.0105714 0)
(8.35092 -0.0115066 0)
(8.35235 -0.0124015 0)
(8.35372 -0.0132645 0)
(8.35506 -0.0141034 0)
(8.35634 -0.0149247 0)
(8.35757 -0.0157341 0)
(8.35874 -0.0165364 0)
(8.35986 -0.0173358 0)
(8.36092 -0.0181356 0)
(8.36193 -0.0189386 0)
(8.36287 -0.0197472 0)
(8.36375 -0.0205632 0)
(8.36457 -0.0213879 0)
(8.36533 -0.0222226 0)
(8.36603 -0.0230678 0)
(8.36666 -0.0239243 0)
(8.36723 -0.0247921 0)
(8.36774 -0.0256708 0)
(8.33358 -0.00195822 0)
(8.33467 -0.0068982 0)
(8.33441 -0.0116859 0)
(8.33371 -0.0148683 0)
(8.33348 -0.0166479 0)
(8.33388 -0.017615 0)
(8.33475 -0.0180959 0)
(8.33593 -0.0182841 0)
(8.33733 -0.0183143 0)
(8.33886 -0.0182738 0)
(8.34048 -0.0182168 0)
(8.34215 -0.018176 0)
(8.34382 -0.0181704 0)
(8.34548 -0.01821 0)
(8.34712 -0.0182994 0)
(8.34872 -0.0184398 0)
(8.35027 -0.0186307 0)
(8.35177 -0.0188702 0)
(8.35322 -0.0191559 0)
(8.3546 -0.0194853 0)
(8.35592 -0.0198558 0)
(8.35718 -0.0202648 0)
(8.35838 -0.0207099 0)
(8.3595 -0.021189 0)
(8.36056 -0.0217 0)
(8.36156 -0.022241 0)
(8.36249 -0.0228103 0)
(8.36334 -0.0234062 0)
(8.36414 -0.0240273 0)
(8.36486 -0.0246722 0)
(8.36552 -0.0253397 0)
(8.36612 -0.0260288 0)
(8.36665 -0.0267377 0)
(8.33162 0.00369393 0)
(8.32827 0.0102446 0)
(8.32843 0.0134054 0)
(8.33098 0.0133523 0)
(8.33359 0.0112945 0)
(8.33577 0.00845003 0)
(8.33773 0.0054481 0)
(8.33953 0.0025318 0)
(8.3412 -0.000186849 0)
(8.34277 -0.00265987 0)
(8.34429 -0.00488187 0)
(8.34575 -0.00686881 0)
(8.34719 -0.008645 0)
(8.34859 -0.0102372 0)
(8.34996 -0.0116718 0)
(8.35131 -0.0129731 0)
(8.35264 -0.0141627 0)
(8.35393 -0.0152594 0)
(8.35519 -0.0162794 0)
(8.35642 -0.0172365 0)
(8.3576 -0.0181422 0)
(8.35875 -0.0190063 0)
(8.35985 -0.0198371 0)
(8.3609 -0.0206413 0)
(8.3619 -0.0214248 0)
(8.36285 -0.0221923 0)
(8.36374 -0.0229478 0)
(8.36458 -0.0236944 0)
(8.36536 -0.0244349 0)
(8.36608 -0.0251713 0)
(8.36674 -0.0259053 0)
(8.36734 -0.026638 0)
(8.36788 -0.0273701 0)
(8.3343 -0.00642958 0)
(8.33462 -0.0206738 0)
(8.33073 -0.0298995 0)
(8.32672 -0.0338901 0)
(8.3248 -0.0347809 0)
(8.32488 -0.0342304 0)
(8.32606 -0.0330512 0)
(8.32779 -0.0316396 0)
(8.32985 -0.0302182 0)
(8.33211 -0.0289035 0)
(8.33446 -0.0277471 0)
(8.33685 -0.0267653 0)
(8.33923 -0.0259568 0)
(8.34159 -0.0253108 0)
(8.3439 -0.0248128 0)
(8.34615 -0.024447 0)
(8.34834 -0.024198 0)
(8.35045 -0.0240516 0)
(8.35249 -0.023995 0)
(8.35446 -0.024017 0)
(8.35634 -0.0241077 0)
(8.35815 -0.0242587 0)
(8.35987 -0.0244627 0)
(8.36151 -0.0247134 0)
(8.36307 -0.0250056 0)
(8.36455 -0.0253347 0)
(8.36595 -0.0256968 0)
(8.36726 -0.0260885 0)
(8.36849 -0.026507 0)
(8.36964 -0.0269497 0)
(8.37071 -0.0274147 0)
(8.3717 -0.0279002 0)
(8.37262 -0.0284043 0)
(8.32884 0.0225983 0)
(8.32235 0.04278 0)
(8.32668 0.044016 0)
(8.33331 0.0380654 0)
(8.33782 0.0307251 0)
(8.34066 0.0235821 0)
(8.34296 0.0169504 0)
(8.34515 0.0110068 0)
(8.34734 0.00580726 0)
(8.3496 0.0013039 0)
(8.35196 -0.00258333 0)
(8.35442 -0.00593621 0)
(8.35695 -0.00883236 0)
(8.35954 -0.0113422 0)
(8.36216 -0.0135271 0)
(8.36479 -0.0154394 0)
(8.36741 -0.0171232 0)
(8.37 -0.0186157 0)
(8.37255 -0.0199479 0)
(8.37505 -0.0211457 0)
(8.37749 -0.0222307 0)
(8.37985 -0.0232211 0)
(8.38214 -0.0241319 0)
(8.38434 -0.0249759 0)
(8.38645 -0.0257636 0)
(8.38847 -0.026504 0)
(8.39039 -0.0272044 0)
(8.39222 -0.0278713 0)
(8.39396 -0.0285101 0)
(8.39559 -0.0291252 0)
(8.39713 -0.0297207 0)
(8.39857 -0.0302994 0)
(8.39991 -0.0308655 0)
(8.32436 -0.0380265 0)
(8.29386 -0.0683105 0)
(8.27216 -0.07168 0)
(8.26669 -0.0685775 0)
(8.27357 -0.0642264 0)
(8.28619 -0.0593987 0)
(8.30093 -0.0547181 0)
(8.31623 -0.0505452 0)
(8.33125 -0.0469407 0)
(8.34552 -0.0438793 0)
(8.35884 -0.0413159 0)
(8.37116 -0.0391914 0)
(8.38247 -0.0374438 0)
(8.39283 -0.0360159 0)
(8.4023 -0.0348578 0)
(8.41093 -0.0339261 0)
(8.41879 -0.0331844 0)
(8.42595 -0.0326019 0)
(8.43246 -0.0321532 0)
(8.43838 -0.0318171 0)
(8.44375 -0.031576 0)
(8.44862 -0.0314155 0)
(8.45302 -0.0313234 0)
(8.457 -0.0312897 0)
(8.46058 -0.0313061 0)
(8.46379 -0.0313655 0)
(8.46666 -0.0314621 0)
(8.46922 -0.0315907 0)
(8.47149 -0.0317473 0)
(8.47348 -0.031928 0)
(8.47522 -0.0321296 0)
(8.47672 -0.0323491 0)
(8.47801 -0.0325829 0)
(8.34002 0.15699 0)
(8.38199 0.149 0)
(8.4025 0.103383 0)