/*--------------------------------*- C++ -*----------------------------------*\
| =========                 |                                                 |
| \\      /  F ield         | OpenFOAM: The Open Source CFD Toolbox           |
|  \\    /   O peration     | Version:  2.1.1                                 |
|   \\  /    A nd           | Web:      www.OpenFOAM.org                      |
|    \\/     M anipulation  |                                                 |
\*---------------------------------------------------------------------------*/
FoamFile
{
    version     2.0;
    format      ascii;
    class       volScalarField;
    location    "0.125";
    object      epsilon;
}
// * * * * * * * * * * * * * * * * * * * * * * * * * * * * * * * * * * * * * //

dimensions      [0 2 -3 0 0 0 0];

internalField   nonuniform List<scalar> 
6820
(
151.448
203.151
260.735
321.761
383.63
443.729
499.774
550.056
593.52
629.726
658.741
681.005
697.195
708.106
714.565
717.368
717.245
714.837
710.694
705.274
698.955
692.04
684.769
677.331
669.868
662.491
655.275
648.291
641.496
635.294
627.826
628.004
593.141
11.7448
21.4171
29.943
38.6226
47.5766
56.5513
65.3096
73.6502
81.411
88.4834
94.8128
100.392
105.251
109.447
113.05
116.138
118.789
121.075
123.062
124.806
126.356
127.754
129.033
130.222
131.343
132.417
133.463
134.502
135.558
136.698
137.944
139.73
141.861
5.8378
7.51683
9.20669
10.8094
12.32
13.7476
15.0886
16.3395
17.4984
18.5653
19.5418
20.4316
21.24
21.9734
22.639
23.2444
23.7973
24.3049
24.7743
25.2116
25.6226
26.0122
26.3849
26.7444
27.0937
27.4357
27.7726
28.1064
28.4386
28.7719
29.1077
29.4436
29.8233
5.24229
5.56004
6.00444
6.49349
6.98574
7.46199
7.91315
8.3349
8.72559
9.08504
9.41403
9.71388
9.9863
10.2332
10.4566
10.6584
10.8408
11.0056
11.1548
11.29
11.4128
11.5249
11.6275
11.722
11.8094
11.8907
11.9668
12.0383
12.1058
12.1697
12.2294
12.2858
12.3357
5.17349
5.18677
5.26821
5.39776
5.55638
5.72969
5.90781
6.08431
6.25516
6.41793
6.57124
6.71437
6.84709
6.96948
7.08179
7.18444
7.27793
7.3628
7.43964
7.50904
7.57158
7.62783
7.67835
7.72366
7.76426
7.80062
7.83316
7.86229
7.88834
7.91166
7.93246
7.95103
7.96743
5.16878
5.12131
5.09602
5.09481
5.11536
5.15307
5.20299
5.26075
5.32291
5.38691
5.45087
5.51346
5.57376
5.63117
5.68529
5.73589
5.78289
5.82626
5.86607
5.90242
5.93545
5.96532
5.99221
6.01629
6.03777
6.05682
6.07364
6.0884
6.10128
6.11245
6.12208
6.13027
6.13722
5.16887
5.11169
5.06116
5.01963
4.9884
4.96755
4.95615
4.95279
4.95586
4.96385
4.97541
4.98942
5.00498
5.02136
5.03801
5.05448
5.07046
5.08572
5.10007
5.11341
5.12566
5.13679
5.14679
5.15566
5.16344
5.17015
5.17584
5.18058
5.18441
5.18739
5.1896
5.19108
5.1919
5.16902
5.11062
5.05514
5.00339
4.95619
4.91414
4.87747
4.84611
4.81972
4.79781
4.77979
4.76509
4.75314
4.74345
4.73556
4.72908
4.7237
4.71914
4.71517
4.7116
4.7083
4.70513
4.70201
4.69886
4.69563
4.69228
4.68877
4.6851
4.68125
4.67721
4.673
4.66861
4.66406
5.16904
5.11054
5.05431
5.00049
4.94927
4.9009
4.85559
4.81346
4.77456
4.73882
4.70611
4.67623
4.64896
4.62405
4.60125
4.58032
4.56104
4.54321
4.52664
4.51116
4.49664
4.48293
4.46994
4.45757
4.44573
4.43435
4.42338
4.41277
4.40247
4.39246
4.38269
4.37316
4.36382
5.16904
5.11054
5.0542
5.00002
4.94796
4.89803
4.85027
4.80472
4.76139
4.72029
4.6814
4.64467
4.61002
4.57737
4.54661
4.51761
4.49026
4.46444
4.44003
4.41692
4.395
4.37417
4.35434
4.33544
4.31737
4.30008
4.2835
4.26757
4.25225
4.2375
4.22326
4.20951
4.19621
5.16904
5.11053
5.05418
4.99994
4.94773
4.89747
4.84913
4.80265
4.758
4.71515
4.67406
4.63471
4.59706
4.56105
4.52663
4.49374
4.46232
4.4323
4.40361
4.37618
4.34995
4.32484
4.3008
4.27776
4.25565
4.23444
4.21406
4.19446
4.17561
4.15745
4.13996
4.12309
4.1068
5.16904
5.11052
5.05417
4.99991
4.94767
4.89735
4.84888
4.80219
4.7572
4.71385
4.6721
4.6319
4.59319
4.55593
4.52008
4.48558
4.45239
4.42046
4.38975
4.36021
4.33178
4.30443
4.2781
4.25276
4.22835
4.20483
4.18217
4.16033
4.13926
4.11894
4.09932
4.08039
4.06209
5.16904
5.11052
5.05416
4.99989
4.94764
4.89731
4.84881
4.80206
4.75699
4.71352
4.67159
4.63114
4.59211
4.55445
4.51811
4.48303
4.44918
4.4165
4.38496
4.35451
4.32512
4.29674
4.26934
4.24287
4.21731
4.19261
4.16875
4.14569
4.1234
4.10186
4.08102
4.06087
4.04137
5.16903
5.11051
5.05415
4.99988
4.94762
4.89728
4.84877
4.802
4.75691
4.71341
4.67143
4.63091
4.59179
4.55401
4.51752
4.48226
4.44818
4.41524
4.3834
4.35262
4.32285
4.29406
4.2662
4.23926
4.21319
4.18796
4.16354
4.1399
4.11702
4.09486
4.07341
4.05263
4.03249
5.16903
5.11051
5.05414
4.99987
4.9476
4.89725
4.84873
4.80196
4.75685
4.71334
4.67134
4.6308
4.59166
4.55384
4.5173
4.48198
4.44783
4.41481
4.38287
4.35197
4.32207
4.29313
4.26511
4.23798
4.21171
4.18626
4.16161
4.13773
4.11459
4.09216
4.07042
4.04934
4.0289
5.16903
5.11051
5.05413
4.99986
4.94758
4.89723
4.8487
4.80192
4.7568
4.71328
4.67128
4.63072
4.59156
4.55373
4.51717
4.48183
4.44766
4.41461
4.38264
4.35169
4.32175
4.29275
4.26467
4.23748
4.21113
4.1856
4.16086
4.13688
4.11363
4.09109
4.06923
4.04803
4.02746
5.16903
5.1105
5.05413
4.99985
4.94757
4.89721
4.84868
4.80189
4.75676
4.71323
4.67122
4.63065
4.59148
4.55364
4.51707
4.48172
4.44753
4.41447
4.38248
4.35152
4.32155
4.29253
4.26443
4.23721
4.21083
4.18527
4.16049
4.13647
4.11318
4.09059
4.06868
4.04742
4.02679
5.16903
5.1105
5.05412
4.99984
4.94756
4.89719
4.84865
4.80186
4.75673
4.71318
4.67116
4.63059
4.59141
4.55356
4.51698
4.48161
4.44742
4.41434
4.38234
4.35137
4.32139
4.29236
4.26424
4.237
4.21061
4.18503
4.16024
4.1362
4.11288
4.09027
4.06833
4.04705
4.02639
5.16903
5.1105
5.05412
4.99983
4.94755
4.89718
4.84863
4.80183
4.75669
4.71314
4.67111
4.63054
4.59134
4.55348
4.51689
4.48152
4.44732
4.41423
4.38222
4.35124
4.32125
4.2922
4.26408
4.23683
4.21042
4.18483
4.16002
4.13596
4.11263
4.09
4.06805
4.04675
4.02607
5.16903
5.1105
5.05411
4.99982
4.94754
4.89716
4.84861
4.80181
4.75666
4.71311
4.67107
4.63048
4.59129
4.55342
4.51682
4.48144
4.44722
4.41413
4.38211
4.35111
4.32111
4.29206
4.26392
4.23666
4.21024
4.18464
4.15982
4.13575
4.1124
4.08976
4.06779
4.04647
4.02578
5.16903
5.1105
5.05411
4.99982
4.94753
4.89715
4.8486
4.80179
4.75664
4.71307
4.67103
4.63044
4.59123
4.55335
4.51675
4.48136
4.44713
4.41403
4.382
4.351
4.32099
4.29192
4.26377
4.2365
4.21007
4.18446
4.15962
4.13554
4.11219
4.08953
4.06755
4.04621
4.0255
5.16903
5.11049
5.05411
4.99981
4.94752
4.89714
4.84858
4.80177
4.75661
4.71305
4.671
4.6304
4.59118
4.5533
4.51668
4.48129
4.44705
4.41394
4.3819
4.35089
4.32087
4.2918
4.26364
4.23636
4.20992
4.18429
4.15944
4.13535
4.11198
4.08931
4.06732
4.04597
4.02524
5.16903
5.11049
5.05411
4.99981
4.94752
4.89713
4.84857
4.80175
4.75659
4.71302
4.67096
4.63036
4.59114
4.55325
4.51662
4.48122
4.44698
4.41386
4.38181
4.35079
4.32076
4.29168
4.26351
4.23622
4.20977
4.18413
4.15927
4.13517
4.11179
4.0891
4.06709
4.04573
4.025
5.16903
5.11049
5.0541
4.99981
4.94751
4.89712
4.84856
4.80174
4.75657
4.713
4.67094
4.63032
4.5911
4.5532
4.51657
4.48116
4.44691
4.41379
4.38173
4.3507
4.32066
4.29157
4.26339
4.23609
4.20963
4.18398
4.15911
4.135
4.1116
4.08891
4.06689
4.04551
4.02476
5.16903
5.11049
5.0541
4.9998
4.94751
4.89712
4.84855
4.80172
4.75656
4.71298
4.67091
4.63029
4.59106
4.55316
4.51652
4.48111
4.44685
4.41372
4.38165
4.35062
4.32057
4.29147
4.26328
4.23597
4.2095
4.18384
4.15896
4.13483
4.11143
4.08872
4.06669
4.04531
4.02454
5.16903
5.11049
5.0541
4.9998
4.9475
4.89711
4.84854
4.80171
4.75654
4.71296
4.67089
4.63027
4.59103
4.55312
4.51648
4.48106
4.4468
4.41366
4.38159
4.35054
4.32049
4.29138
4.26318
4.23586
4.20938
4.18371
4.15882
4.13469
4.11127
4.08855
4.06651
4.04511
4.02434
5.16903
5.11049
5.0541
4.9998
4.9475
4.89711
4.84854
4.8017
4.75653
4.71294
4.67087
4.63024
4.591
4.55309
4.51644
4.48101
4.44675
4.4136
4.38152
4.35047
4.32041
4.29129
4.26309
4.23576
4.20927
4.18359
4.15869
4.13455
4.11112
4.0884
4.06634
4.04493
4.02414
5.16903
5.11049
5.0541
4.9998
4.9475
4.8971
4.84853
4.8017
4.75652
4.71294
4.67086
4.63023
4.59099
4.55307
4.51642
4.48098
4.44671
4.41356
4.38147
4.35042
4.32035
4.29122
4.26301
4.23567
4.20918
4.18349
4.15858
4.13443
4.11099
4.08825
4.06619
4.04477
4.02397
5.16903
5.11049
5.0541
4.9998
4.9475
4.8971
4.84853
4.80169
4.75651
4.71292
4.67084
4.63021
4.59096
4.55304
4.51638
4.48094
4.44667
4.41351
4.38142
4.35036
4.32028
4.29115
4.26293
4.23559
4.20909
4.18339
4.15848
4.13431
4.11087
4.08812
4.06605
4.04462
4.02381
5.16903
5.11049
5.0541
4.9998
4.9475
4.89711
4.84853
4.8017
4.75652
4.71293
4.67085
4.63022
4.59097
4.55305
4.51639
4.48095
4.44667
4.4135
4.38141
4.35034
4.32026
4.29112
4.2629
4.23554
4.20903
4.18333
4.15841
4.13424
4.11079
4.08803
4.06595
4.04451
4.0237
5.16903
5.11049
5.0541
4.9998
4.9475
4.8971
4.84853
4.80169
4.75651
4.71291
4.67083
4.6302
4.59094
4.55302
4.51636
4.48092
4.44663
4.41347
4.38137
4.3503
4.32022
4.29108
4.26286
4.2355
4.20899
4.18329
4.15836
4.13419
4.11074
4.08798
4.06589
4.04445
4.02364
5.16903
5.11049
5.0541
4.99981
4.94752
4.89714
4.84858
4.80176
4.75659
4.713
4.67093
4.6303
4.59105
4.55312
4.51647
4.48102
4.44674
4.41357
4.38148
4.35041
4.32032
4.29119
4.26296
4.23561
4.2091
4.18341
4.15849
4.13432
4.11088
4.08814
4.06606
4.04464
4.02383
5.16903
5.11051
5.05414
4.99985
4.94756
4.89718
4.84861
4.80178
4.75661
4.71302
4.67095
4.63033
4.59109
4.55319
4.51655
4.48113
4.44687
4.41374
4.38168
4.35065
4.32062
4.29153
4.26336
4.23607
4.20963
4.184
4.15916
4.13507
4.11171
4.08905
4.06707
4.04574
4.02504
5.16903
5.1105
5.05415
4.99992
4.9477
4.89739
4.8489
4.80214
4.75703
4.71351
4.67151
4.63096
4.59181
4.554
4.51747
4.48218
4.44807
4.4151
4.38323
4.35241
4.3226
4.29377
4.26587
4.23886
4.21273
4.18742
4.16292
4.13918
4.11619
4.09391
4.07232
4.05139
4.0311
5.16905
5.11063
5.05441
5.00026
4.9481
4.89786
4.84947
4.80288
4.75802
4.71482
4.67323
4.63318
4.59461
4.55747
4.52171
4.48726
4.45407
4.4221
4.39129
4.3616
4.33298
4.30537
4.27875
4.25307
4.22829
4.20437
4.18127
4.15896
4.13741
4.11659
4.09645
4.07699
4.05815
5.16908
5.11079
5.05488
5.00136
4.95017
4.9012
4.8544
4.80972
4.7671
4.72648
4.68779
4.65096
4.61591
4.58254
4.55079
4.52055
4.49175
4.4643
4.43813
4.41315
4.38929
4.3665
4.3447
4.32383
4.30384
4.28468
4.26629
4.24863
4.23166
4.21534
4.19963
4.1845
4.16991
5.16939
5.11358
5.06202
5.01464
4.97148
4.93248
4.89744
4.86611
4.83818
4.8133
4.79117
4.77148
4.75394
4.7383
4.72431
4.71179
4.70053
4.69037
4.68117
4.67279
4.66514
4.65811
4.65161
4.64557
4.63992
4.63461
4.62959
4.62481
4.62025
4.61586
4.61162
4.6075
4.60349
5.17808
5.16329
5.16948
5.19112
5.22426
5.26587
5.31356
5.36543
5.42008
5.47641
5.53358
5.59095
5.648
5.70435
5.75971
5.81386
5.86663
5.91791
5.96763
6.01574
6.06221
6.10704
6.15024
6.19182
6.23182
6.27028
6.30722
6.3427
6.37676
6.40946
6.44084
6.47095
6.49987
5.63861
6.43047
7.14597
7.82601
8.49542
9.14821
9.77849
10.3839
10.9643
11.5206
12.0542
12.5666
13.0594
13.534
13.9916
14.4335
14.8605
15.2737
15.6736
16.0611
16.4367
16.801
17.1545
17.4977
17.831
18.1548
18.4695
18.7754
19.0728
19.3622
19.6437
19.9178
20.1847
44.7794
48.3124
51.8864
55.4656
59.0311
62.5709
66.0743
69.5317
72.9343
76.2742
79.5447
82.7398
85.8546
88.8852
91.8284
94.6817
97.4435
100.113
102.689
105.172
107.562
109.861
112.069
114.188
116.219
118.165
120.028
121.809
123.512
125.138
126.691
128.171
129.584
705.313
835.676
940.155
1023.36
1089.66
1137.73
1164.56
1168.41
1150.6
1115.23
1067.98
1014.6
959.841
906.954
857.675
812.582
771.544
734.122
699.833
668.275
639.155
612.257
587.402
564.407
543.071
523.171
504.47
486.731
469.726
453.248
437.111
421.161
405.27
389.336
373.287
357.076
340.684
324.117
307.407
290.608
273.8
257.078
240.552
224.344
208.576
193.372
178.842
165.084
152.176
140.172
129.098
118.952
109.708
101.314
93.6959
86.7654
80.422
74.5593
69.0707
63.8542
58.8178
53.8845
48.9972
44.1227
39.2553
34.4193
29.6695
25.0886
20.7805
16.8578
13.4242
10.5526
8.26755
6.53896
5.29212
4.42977
3.85456
3.48333
3.25187
3.1136
3.036
2.99691
2.98154
2.98023
2.98684
2.99761
3.01043
3.02422
3.03865
3.05382
3.07009
3.08787
3.10756
3.12939
3.15336
3.17916
3.20621
3.23374
3.25929
3.29326
146.452
153.188
163.404
178.378
199.307
227.041
261.739
302.638
347.973
395.086
440.771
481.77
515.327
539.647
554.118
559.263
556.447
547.481
534.235
518.359
501.138
483.461
465.871
448.651
431.907
415.646
399.819
384.357
369.184
354.226
339.414
324.686
309.99
295.288
280.555
265.785
250.991
236.205
221.48
206.884
192.501
178.426
164.761
151.606
139.06
127.208
116.124
105.861
96.4508
87.9022
80.2021
73.3159
67.1904
61.7571
56.9363
52.6403
48.7776
45.2568
41.9896
38.8944
35.9001
32.9493
30.0021
27.039
24.0631
21.1011
18.2017
15.4306
12.8628
10.5698
8.60634
6.9993
5.74253
4.80147
4.12431
3.65449
3.33994
3.13743
3.01332
2.9425
2.90682
2.89344
2.89354
2.90124
2.91273
2.9257
2.93888
2.95173
2.96421
2.97661
2.9894
3.00312
3.01828
3.03525
3.05422
3.07505
3.09739
3.12066
3.14265
3.17295
30.186
30.6171
31.2791
32.3726
33.9918
36.2343
39.3793
43.7736
49.8027
57.8461
68.2126
81.062
96.3288
113.673
132.479
151.908
170.994
188.779
204.43
217.343
227.184
233.891
237.623
238.69
237.484
234.406
229.83
224.074
217.394
209.986
201.994
193.53
184.678
175.51
166.09
156.484
146.762
137
127.279
117.685
108.306
99.2307
90.5424
82.3161
74.6152
67.4887
60.9685
55.0696
49.7893
45.1092
40.9974
37.4105
34.2973
31.6007
29.261
27.2173
25.4093
23.7789
22.2713
20.8367
19.4324
18.0243
16.59
15.1202
13.6205
12.111
10.6247
9.20288
7.88881
6.7203
5.72302
4.90664
4.26514
3.7805
3.42813
3.18183
3.01715
2.91305
2.8524
2.82179
2.81108
2.81283
2.82179
2.83431
2.84805
2.86158
2.87415
2.88552
2.89581
2.9054
2.91482
2.92464
2.93546
2.94773
2.96177
2.97763
2.99512
3.01386
3.03198
3.05783
12.3905
12.4662
12.5628
12.6881
12.8582
13.0697
13.3382
13.6947
14.1805
14.8468
15.7535
16.9674
18.5602
20.604
23.1644
26.2915
30.0065
34.2897
39.0704
44.2246
49.5813
54.9371
60.0767
64.7938
68.9103
72.2896
74.8426
76.5277
77.3453
77.3298
76.5403
75.052
72.9495
70.3218
67.2586
63.8494
60.1813
56.3394
52.405
48.4551
44.5611
40.7865
37.1863
33.8045
30.6741
27.8165
25.2416
22.9492
20.9307
19.1704
17.6478
16.3391
15.219
14.2613
13.44
12.7294
12.1044
11.5407
11.0151
10.5057
9.99328
9.46197
8.90093
8.30568
7.67908
7.0314
6.37934
5.74372
5.14629
4.60622
4.13729
3.74639
3.43362
3.1936
3.01744
2.89455
2.81415
2.76626
2.74217
2.73471
2.73818
2.74824
2.7617
2.7763
2.79056
2.80358
2.81491
2.8245
2.83252
2.83939
2.84562
2.85182
2.85858
2.86642
2.87576
2.88677
2.89943
2.91352
2.92758
2.94837
7.98423
8.00241
8.02015
8.03769
8.05682
8.07982
8.1074
8.14268
8.19025
8.25606
8.34741
8.4728
8.64173
8.86434
9.15089
9.51119
9.95376
10.485
11.1081
11.8223
12.6217
13.4951
14.4249
15.3877
16.3547
17.293
18.1678
18.9447
19.5922
20.0841
20.4014
20.5328
20.4758
20.2357
19.8251
19.2628
18.5719
17.7785
16.9105
15.9955
15.0597
14.1269
13.2177
12.3485
11.5317
10.7759
10.0859
9.46333
8.90744
8.41554
7.98357
7.60658
7.27899
6.99483
6.74782
6.53139
6.33868
6.16247
5.9953
5.82961
5.65807
5.47416
5.27288
5.05148
4.81022
4.55259
4.28523
4.01705
3.75805
3.51781
3.30415
3.12226
2.97439
2.86005
2.77664
2.72013
2.68583
2.66894
2.66499
2.67007
2.6809
2.69489
2.71005
2.72495
2.7386
2.75042
2.76014
2.76778
2.77355
2.77782
2.78112
2.78399
2.78704
2.7908
2.79574
2.80214
2.81012
2.81957
2.8295
2.84481
6.14356
6.14854
6.15135
6.1523
6.15178
6.15007
6.14752
6.14468
6.14232
6.14139
6.14307
6.1487
6.15988
6.17836
6.20601
6.24473
6.29623
6.36194
6.4428
6.5391
6.6504
6.77536
6.91177
7.05646
7.20539
7.35374
7.49607
7.62655
7.73933
7.82883
7.89012
7.91926
7.91356
7.87175
7.79406
7.68215
7.53902
7.3687
7.17603
6.96631
6.745
6.51739
6.28841
6.06237
5.84293
5.63298
5.43466
5.24943
5.07811
4.92102
4.77801
4.64859
4.53199
4.42716
4.33282
4.24748
4.16937
4.09648
4.02651
3.95698
3.88525
3.80878
3.72539
3.63359
3.53296
3.42438
3.31011
3.19366
3.07928
2.97148
2.87433
2.79094
2.7232
2.67166
2.63568
2.61368
2.60353
2.60282
2.60916
2.6203
2.63429
2.64949
2.66462
2.67868
2.69102
2.70122
2.70911
2.71473
2.7183
2.72015
2.72075
2.72062
2.72032
2.72038
2.72129
2.7234
2.72693
2.73187
2.73772
2.74728
5.19194
5.19072
5.18807
5.18395
5.17837
5.17129
5.16287
5.15334
5.14292
5.13181
5.12023
5.1084
5.09659
5.08512
5.07434
5.06465
5.05646
5.05015
5.04607
5.04445
5.04536
5.04869
5.05413
5.06112
5.06889
5.07646
5.08267
5.08626
5.08589
5.08024
5.06812
5.04846
5.02046
4.98361
4.93774
4.88301
4.8199
4.74922
4.67199
4.58945
4.50292
4.41377
4.32335
4.2329
4.14355
4.05625
3.97178
3.89072
3.81348
3.74032
3.67134
3.60653
3.54577
3.48885
3.43547
3.38526
3.33773
3.29233
3.24837
3.20507
3.16158
3.11702
3.0706
3.02172
2.97016
2.91616
2.86054
2.80469
2.7504
2.69969
2.65449
2.61642
2.58655
2.56532
2.55255
2.54754
2.54916
2.55611
2.56696
2.58034
2.59498
2.60977
2.62381
2.63639
2.647
2.65534
2.6613
2.66491
2.66635
2.66595
2.6641
2.66126
2.65797
2.65471
2.65199
2.65017
2.64957
2.65022
2.65213
2.65587
4.65846
4.65149
4.64368
4.63496
4.62535
4.61486
4.60349
4.59127
4.57824
4.56446
4.54995
4.53474
4.51886
4.50233
4.48516
4.46741
4.44914
4.43042
4.41135
4.39199
4.37243
4.35269
4.33278
4.31263
4.29213
4.2711
4.24931
4.22646
4.20226
4.17636
4.14846
4.11826
4.08553
4.05011
4.01194
3.97103
3.92751
3.88161
3.83363
3.78394
3.73295
3.68111
3.62884
3.57658
3.5247
3.47352
3.42333
3.37431
3.32661
3.28033
3.23548
3.19208
3.15008
3.10943
3.07005
3.03185
2.99473
2.95858
2.92324
2.88855
2.85433
2.8204
2.78658
2.75278
2.71902
2.68551
2.65265
2.62109
2.59161
2.56515
2.54259
2.52468
2.51192
2.5045
2.50229
2.50483
2.51144
2.52127
2.53338
2.54683
2.56069
2.57416
2.58654
2.59727
2.60596
2.61235
2.61634
2.61797
2.6174
2.6149
2.61081
2.60556
2.59959
2.5934
2.58743
2.58208
2.57772
2.57436
2.57258
2.57056
4.35312
4.3408
4.32812
4.31504
4.3015
4.28747
4.27294
4.2579
4.24237
4.22636
4.20985
4.19285
4.17532
4.15724
4.13857
4.11927
4.09933
4.07871
4.05742
4.03544
4.01279
3.98949
3.96554
3.94096
3.91575
3.8899
3.8634
3.8362
3.80827
3.77955
3.74998
3.71952
3.68813
3.6558
3.62252
3.58834
3.5533
3.51751
3.48108
3.44415
3.40686
3.36938
3.33185
3.29441
3.2572
3.2203
3.1838
3.14774
3.11215
3.07703
3.04237
3.00814
2.97431
2.94087
2.90781
2.87512
2.84283
2.81095
2.77956
2.74868
2.71841
2.68882
2.66001
2.63212
2.60532
2.57985
2.55602
2.53421
2.51484
2.49838
2.48524
2.47575
2.47011
2.46833
2.47023
2.47544
2.48345
2.49363
2.50525
2.51758
2.52992
2.5416
2.55204
2.56077
2.56746
2.57189
2.57395
2.57368
2.57121
2.56676
2.56064
2.55321
2.54489
2.53609
2.52726
2.51877
2.51102
2.50401
2.49882
2.49124
4.1812
4.16424
4.1472
4.13002
4.11269
4.09516
4.07743
4.05948
4.04131
4.02291
4.00427
3.98538
3.9662
3.94671
3.92688
3.90667
3.88603
3.86493
3.84333
3.82122
3.79856
3.77536
3.7516
3.72729
3.70244
3.67705
3.65115
3.62475
3.59787
3.57051
3.54271
3.51448
3.48584
3.45682
3.42746
3.39779
3.36786
3.33773
3.30744
3.27706
3.24665
3.21626
3.18594
3.15572
3.12564
3.09569
3.06588
3.0362
3.00662
2.9771
2.94761
2.91812
2.8886
2.85906
2.82949
2.79994
2.77046
2.74113
2.71208
2.68343
2.65535
2.62801
2.60162
2.5764
2.5526
2.53047
2.51029
2.49236
2.47696
2.46436
2.45479
2.44838
2.44519
2.44514
2.44801
2.45347
2.46109
2.47032
2.48057
2.49122
2.50168
2.51136
2.51976
2.52648
2.53119
2.5337
2.53391
2.53183
2.52758
2.52133
2.51336
2.50399
2.49357
2.48249
2.47115
2.45989
2.44914
2.43885
2.43056
2.41775
4.08848
4.06789
4.04734
4.02682
4.00629
3.98574
3.96516
3.94453
3.92384
3.90311
3.88231
3.86143
3.84047
3.81941
3.79821
3.77685
3.75531
3.73354
3.71152
3.68923
3.66662
3.64369
3.62043
3.59682
3.57287
3.54857
3.52395
3.49902
3.47379
3.44829
3.42255
3.39659
3.37045
3.34416
3.31776
3.29127
3.26473
3.23819
3.21165
3.18516
3.15874
3.13238
3.1061
3.0799
3.05376
3.02765
3.00153
2.97538
2.94914
2.92278
2.89624
2.86949
2.84253
2.81534
2.78795
2.7604
2.73277
2.70516
2.6777
2.65056
2.62391
2.59798
2.57299
2.54918
2.52683
2.50618
2.48752
2.47108
2.4571
2.44577
2.43723
2.43155
2.42871
2.4286
2.43099
2.43558
2.44195
2.44965
2.45814
2.46687
2.47532
2.48296
2.48934
2.49408
2.49689
2.49757
2.49603
2.49226
2.48634
2.47845
2.46881
2.45769
2.44541
2.43233
2.41879
2.40513
2.39175
2.37854
2.3675
2.34986
4.04149
4.01836
3.99531
3.97232
3.9494
3.92652
3.90368
3.88088
3.85812
3.8354
3.81272
3.79007
3.76745
3.74486
3.72227
3.69968
3.67707
3.6544
3.63168
3.60886
3.58594
3.56289
3.53971
3.51638
3.4929
3.46926
3.44548
3.42156
3.3975
3.37334
3.34908
3.32475
3.30038
3.27598
3.25159
3.22722
3.20289
3.17863
3.15445
3.13035
3.10634
3.0824
3.05852
3.03468
3.01085
2.98698
2.96303
2.93896
2.9147
2.89021
2.86546
2.84041
2.81505
2.78937
2.76341
2.73721
2.71086
2.68446
2.65815
2.63209
2.60647
2.5815
2.55742
2.53446
2.51289
2.49296
2.47492
2.45899
2.44538
2.43424
2.42567
2.41972
2.41634
2.4154
2.41669
2.41992
2.42471
2.43064
2.43723
2.44399
2.45043
2.45607
2.46049
2.46335
2.46436
2.46332
2.46015
2.4548
2.44737
2.43797
2.42681
2.41412
2.40021
2.38537
2.36993
2.35417
2.3385
2.32274
2.30929
2.28727
4.01939
3.99468
3.97002
3.94544
3.92091
3.89645
3.87204
3.8477
3.82343
3.79923
3.7751
3.75106
3.7271
3.70323
3.67944
3.65573
3.63209
3.60851
3.58498
3.56148
3.53802
3.51456
3.49112
3.46767
3.44422
3.42075
3.39728
3.37381
3.35034
3.32689
3.30345
3.28006
3.25672
3.23344
3.21025
3.18714
3.16414
3.14125
3.11847
3.09579
3.0732
3.05068
3.02822
3.00576
2.98328
2.96073
2.93806
2.91522
2.89215
2.86881
2.84516
2.82118
2.79685
2.77217
2.74718
2.72193
2.69649
2.67096
2.6455
2.62024
2.59537
2.5711
2.54765
2.52525
2.50415
2.48457
2.46676
2.45093
2.43724
2.42585
2.41682
2.4102
2.40592
2.40386
2.40382
2.40552
2.40863
2.41275
2.41744
2.42226
2.42675
2.43048
2.43305
2.43413
2.43345
2.43082
2.42612
2.41934
2.4105
2.39974
2.38721
2.37314
2.35778
2.3414
2.3243
2.30674
2.2891
2.27113
2.2556
2.22968
4.00976
3.98417
3.95861
3.9331
3.90762
3.8822
3.85682
3.83151
3.80625
3.78107
3.75597
3.73096
3.70605
3.68124
3.65655
3.63196
3.60748
3.58312
3.55886
3.53471
3.51066
3.4867
3.46284
3.43907
3.41538
3.39179
3.36828
3.34486
3.32154
3.29833
3.27522
3.25222
3.22936
3.20662
3.18402
3.16157
3.13925
3.11708
3.09504
3.07312
3.0513
3.02956
3.00786
2.98617
2.96445
2.94263
2.92069
2.89855
2.87618
2.85353
2.83057
2.80726
2.7836
2.7596
2.73528
2.71069
2.6859
2.66103
2.63619
2.61154
2.58724
2.5635
2.5405
2.51849
2.49767
2.47828
2.46052
2.44459
2.43065
2.41882
2.40917
2.40173
2.39643
2.39316
2.39174
2.3919
2.39333
2.39567
2.39853
2.40148
2.40412
2.40603
2.40686
2.40628
2.40403
2.39992
2.39383
2.38573
2.37563
2.36363
2.34989
2.33458
2.31795
2.30023
2.2817
2.26258
2.24326
2.22338
2.20608
2.17675
4.00581
3.97978
3.95377
3.92777
3.9018
3.87585
3.84994
3.82407
3.79825
3.77249
3.74679
3.72118
3.69566
3.67024
3.64492
3.61972
3.59465
3.5697
3.54488
3.52019
3.49563
3.47121
3.44693
3.42278
3.39877
3.37491
3.35119
3.32762
3.3042
3.28094
3.25785
3.23492
3.21217
3.18959
3.16719
3.14497
3.12292
3.10104
3.07931
3.05772
3.03625
3.01485
2.99351
2.97218
2.95082
2.92938
2.9078
2.88605
2.86407
2.84182
2.81926
2.79638
2.77316
2.74961
2.72576
2.70165
2.67736
2.65297
2.62862
2.60443
2.58057
2.55722
2.53458
2.51283
2.4922
2.47289
2.45509
2.43897
2.42469
2.41236
2.40204
2.39374
2.3874
2.38293
2.38014
2.37879
2.3786
2.37924
2.38035
2.38154
2.38243
2.38264
2.38184
2.37971
2.376
2.37053
2.36317
2.35386
2.34262
2.32952
2.31469
2.2983
2.28056
2.26168
2.24192
2.22147
2.20071
2.17922
2.1604
2.12814
4.0042
3.97797
3.95174
3.92552
3.8993
3.87309
3.84691
3.82075
3.79463
3.76856
3.74253
3.71658
3.6907
3.66491
3.63921
3.61362
3.58815
3.5628
3.53758
3.51249
3.48755
3.46276
3.43812
3.41363
3.38931
3.36515
3.34117
3.31737
3.29374
3.27031
3.24707
3.22403
3.20119
3.17856
3.15613
3.1339
3.11186
3.09001
3.06833
3.0468
3.0254
3.00409
2.98285
2.96163
2.9404
2.91909
2.89767
2.87609
2.8543
2.83226
2.80995
2.78733
2.76439
2.74116
2.71764
2.69389
2.66996
2.64596
2.62198
2.59817
2.57466
2.55162
2.52923
2.50769
2.48717
2.46788
2.44998
2.43364
2.41899
2.40614
2.39513
2.38598
2.37863
2.37298
2.36887
2.36609
2.36436
2.36338
2.36283
2.36236
2.3616
2.36022
2.35789
2.35432
2.34927
2.34255
2.33403
2.32363
2.31137
2.29729
2.28151
2.26417
2.24546
2.22558
2.20477
2.18319
2.16122
2.13836
2.11828
2.08351
4.00347
3.97715
3.95082
3.92448
3.89815
3.87182
3.84551
3.81921
3.79294
3.7667
3.7405
3.71436
3.68828
3.66227
3.63635
3.61052
3.58479
3.55918
3.53369
3.50833
3.48311
3.45804
3.43312
3.40836
3.38376
3.35934
3.33511
3.31106
3.28721
3.26356
3.24011
3.21688
3.19386
3.17107
3.14849
3.12612
3.10396
3.08199
3.06021
3.0386
3.01712
2.99575
2.97446
2.95321
2.93195
2.91065
2.88926
2.86772
2.846
2.82407
2.80188
2.77942
2.75668
2.73366
2.71039
2.68691
2.66327
2.63957
2.6159
2.59238
2.56915
2.54636
2.52418
2.50278
2.48234
2.46302
2.445
2.42841
2.41338
2.40001
2.38833
2.37835
2.37002
2.36325
2.35789
2.35373
2.35054
2.34804
2.34593
2.34388
2.34159
2.33872
2.33497
2.33006
2.32377
2.3159
2.30632
2.29495
2.28178
2.26684
2.25022
2.23206
2.21253
2.1918
2.17009
2.14755
2.12457
2.10056
2.07943
2.04256
4.00302
3.97666
3.95028
3.92389
3.8975
3.87111
3.84473
3.81836
3.792
3.76568
3.73938
3.71313
3.68694
3.6608
3.63474
3.60876
3.58288
3.55709
3.53142
3.50587
3.48045
3.45516
3.43003
3.40505
3.38023
3.35559
3.33113
3.30686
3.28278
3.25891
3.23525
3.2118
3.18858
3.16558
3.1428
3.12024
3.09789
3.07575
3.0538
3.03202
3.01039
2.98888
2.96746
2.9461
2.92475
2.90338
2.88193
2.86037
2.83865
2.81675
2.79463
2.77226
2.74965
2.72679
2.70371
2.68044
2.65704
2.63358
2.61016
2.58689
2.56389
2.5413
2.51929
2.49799
2.47759
2.45822
2.44006
2.42321
2.40781
2.39392
2.38159
2.37081
2.36155
2.35371
2.34715
2.3417
2.33712
2.33319
2.3296
2.32609
2.32235
2.31808
2.31301
2.30687
2.29943
2.29051
2.27997
2.26773
2.25375
2.23805
2.22072
2.20186
2.18163
2.16018
2.13773
2.1144
2.09057
2.06561
2.04361
2.00499
4.00268
3.97629
3.94987
3.92345
3.89703
3.8706
3.84417
3.81776
3.79135
3.76497
3.73862
3.7123
3.68602
3.65981
3.63365
3.60757
3.58157
3.55566
3.52985
3.50416
3.47859
3.45314
3.42783
3.40268
3.37768
3.35285
3.32819
3.30372
3.27944
3.25536
3.23149
3.20784
3.1844
3.16119
3.1382
3.11543
3.09288
3.07053
3.04838
3.02641
3.0046
2.98291
2.96133
2.93982
2.91834
2.89685
2.87532
2.8537
2.83195
2.81004
2.78794
2.76563
2.7431
2.72037
2.69743
2.67433
2.65113
2.62787
2.60466
2.5816
2.55879
2.53637
2.51449
2.49327
2.47288
2.45345
2.43513
2.41803
2.40225
2.38786
2.37489
2.36336
2.35321
2.34435
2.33666
2.32998
2.3241
2.31881
2.31384
2.30895
2.30385
2.29828
2.29198
2.28468
2.27619
2.26631
2.2549
2.24188
2.22719
2.21085
2.19291
2.17347
2.15266
2.13062
2.10756
2.08358
2.05906
2.03332
2.01061
1.97056
4.00237
3.97595
3.94952
3.92307
3.89661
3.87015
3.8437
3.81724
3.7908
3.76438
3.73798
3.71161
3.68527
3.65899
3.63276
3.6066
3.58051
3.5545
3.52859
3.50278
3.47708
3.4515
3.42605
3.40075
3.37559
3.35059
3.32576
3.30111
3.27665
3.25238
3.22832
3.20447
3.18083
3.15741
3.13422
3.11124
3.08848
3.06593
3.04357
3.0214
2.99939
2.97752
2.95576
2.93409
2.91247
2.89085
2.86921
2.84751
2.8257
2.80377
2.78167
2.7594
2.73693
2.71429
2.69147
2.66852
2.64547
2.62239
2.59936
2.57646
2.55382
2.53154
2.50975
2.4886
2.4682
2.44869
2.43021
2.41284
2.39669
2.38182
2.36826
2.35599
2.34499
2.33517
2.32641
2.31857
2.31146
2.30489
2.29863
2.29243
2.28607
2.27928
2.27182
2.26346
2.25399
2.24323
2.23104
2.21732
2.20202
2.18513
2.16669
2.14677
2.1255
2.10301
2.07946
2.05497
2.02991
2.00354
1.98027
1.93906
4.00208
3.97564
3.94918
3.92271
3.89623
3.86974
3.84325
3.81677
3.79029
3.76383
3.73739
3.71097
3.68459
3.65825
3.63196
3.60573
3.57956
3.55347
3.52746
3.50155
3.47574
3.45005
3.42447
3.39903
3.37373
3.34859
3.3236
3.29879
3.27416
3.24972
3.22548
3.20144
3.17761
3.154
3.1306
3.10743
3.08446
3.06171
3.03915
3.01678
2.99458
2.97253
2.9506
2.92876
2.90699
2.88524
2.86349
2.8417
2.81983
2.79785
2.77575
2.75349
2.73107
2.7085
2.68578
2.66294
2.64003
2.6171
2.59422
2.57147
2.54896
2.52679
2.50509
2.48396
2.46354
2.44395
2.42529
2.40767
2.39116
2.37583
2.36168
2.34873
2.33692
2.32618
2.31641
2.30748
2.29921
2.29143
2.28394
2.27653
2.26896
2.26102
2.25248
2.24312
2.23275
2.22119
2.20829
2.19397
2.17814
2.1608
2.14196
2.12169
2.10008
2.07724
2.05334
2.02847
2.00298
1.97614
1.95243
1.91031
4.0018
3.97534
3.94886
3.92237
3.89586
3.86935
3.84283
3.81632
3.78981
3.76331
3.73683
3.71037
3.68394
3.65755
3.6312
3.6049
3.57867
3.5525
3.52641
3.5004
3.4745
3.44869
3.42301
3.39744
3.37202
3.34674
3.32161
3.29665
3.27186
3.24726
3.22284
3.19863
3.17463
3.15083
3.12725
3.10388
3.08072
3.05778
3.03503
3.01247
2.99008
2.96785
2.94575
2.92375
2.90183
2.87996
2.8581
2.83621
2.81427
2.79225
2.77013
2.74788
2.7255
2.70298
2.68034
2.6576
2.6348
2.61199
2.58924
2.56661
2.54421
2.52214
2.50049
2.47938
2.45893
2.43924
2.42041
2.40253
2.38568
2.36989
2.35519
2.34158
2.32901
2.31741
2.30669
2.29672
2.28735
2.27844
2.26979
2.26121
2.25251
2.24347
2.2339
2.2236
2.21238
2.20007
2.18655
2.17169
2.15544
2.13775
2.11862
2.09811
2.07628
2.05322
2.0291
2.00397
1.97821
1.95102
1.92701
1.88421
4.00154
3.97506
3.94856
3.92204
3.89551
3.86897
3.84243
3.81588
3.78934
3.76281
3.73629
3.70979
3.68332
3.65688
3.63047
3.60412
3.57781
3.55157
3.52541
3.49932
3.47332
3.44742
3.42163
3.39595
3.37041
3.345
3.31974
3.29464
3.2697
3.24495
3.22038
3.196
3.17183
3.14786
3.1241
3.10055
3.07721
3.05408
3.03116
3.00842
2.98585
2.96345
2.94119
2.91904
2.89698
2.87498
2.853
2.83103
2.80902
2.78695
2.7648
2.74255
2.72019
2.69771
2.67514
2.65248
2.62978
2.60707
2.58442
2.5619
2.53959
2.51758
2.49597
2.47487
2.45437
2.43457
2.41557
2.39745
2.38026
2.36405
2.34883
2.33459
2.3213
2.30889
2.29726
2.28631
2.27591
2.2659
2.25614
2.24644
2.23663
2.22653
2.21596
2.20475
2.19272
2.17972
2.16563
2.15033
2.13374
2.1158
2.09652
2.07589
2.05398
2.03086
2.00665
1.98142
1.95553
1.92815
1.90396
1.86069
4.00129
3.97479
3.94827
3.92173
3.89518
3.86861
3.84204
3.81547
3.7889
3.76233
3.73578
3.70924
3.68272
3.65623
3.62978
3.60337
3.577
3.5507
3.52445
3.49829
3.4722
3.44621
3.42032
3.39454
3.36888
3.34336
3.31798
3.29274
3.26768
3.24278
3.21806
3.19353
3.1692
3.14507
3.12114
3.09742
3.07392
3.05061
3.02751
3.0046
2.98187
2.95931
2.93689
2.9146
2.8924
2.87028
2.8482
2.82613
2.80406
2.78194
2.75976
2.7375
2.71515
2.69271
2.67019
2.6476
2.62497
2.60235
2.57979
2.55735
2.53511
2.51316
2.49158
2.47046
2.44991
2.43001
2.41084
2.39248
2.37498
2.35837
2.34266
2.32784
2.31387
2.30069
2.2882
2.27631