/*--------------------------------*- C++ -*----------------------------------*\
| =========                 |                                                 |
| \\      /  F ield         | OpenFOAM: The Open Source CFD Toolbox           |
|  \\    /   O peration     | Version:  2.1.1                                 |
|   \\  /    A nd           | Web:      www.OpenFOAM.org                      |
|    \\/     M anipulation  |                                                 |
\*---------------------------------------------------------------------------*/
FoamFile
{
    version     2.0;
    format      ascii;
    class       volScalarField;
    location    "0.125";
    object      k;
}
// * * * * * * * * * * * * * * * * * * * * * * * * * * * * * * * * * * * * * //

dimensions      [0 2 -2 0 0 0 0];

internalField   nonuniform List<scalar> 
6820
(
0.288909
0.351398
0.415005
0.477466
0.536861
0.59156
0.640377
0.68264
0.718142
0.747058
0.769833
0.787083
0.799508
0.807828
0.812733
0.814857
0.814764
0.812939
0.809795
0.805673
0.800853
0.795562
0.78998
0.784249
0.778478
0.772752
0.76713
0.76167
0.756337
0.751455
0.745554
0.745695
0.717835
0.265532
0.269396
0.270522
0.27134
0.272557
0.274211
0.276219
0.278466
0.280842
0.283261
0.285667
0.288029
0.290337
0.292598
0.294824
0.297034
0.299249
0.301485
0.303759
0.306084
0.308467
0.310916
0.313433
0.316019
0.318673
0.321394
0.324183
0.327046
0.329993
0.33308
0.336325
0.340189
0.344262
0.262038
0.264254
0.263597
0.261558
0.259001
0.25632
0.253628
0.250939
0.248241
0.245526
0.242795
0.240062
0.237346
0.234669
0.232053
0.229518
0.227085
0.224768
0.222579
0.220528
0.218621
0.216861
0.215251
0.213789
0.212474
0.211303
0.210272
0.209377
0.208614
0.207985
0.207476
0.207115
0.206834
0.259885
0.260272
0.259796
0.258535
0.256829
0.254891
0.252834
0.25071
0.248548
0.24636
0.244154
0.241937
0.239717
0.237499
0.235292
0.233103
0.23094
0.228809
0.226718
0.224672
0.222676
0.220734
0.21885
0.217026
0.215264
0.213566
0.211932
0.210362
0.208856
0.207413
0.206029
0.204709
0.20344
0.259299
0.258404
0.2576
0.256567
0.255295
0.25385
0.252292
0.250662
0.248985
0.247278
0.245553
0.243817
0.242077
0.240339
0.238606
0.236883
0.235173
0.233481
0.231809
0.23016
0.228538
0.226943
0.225379
0.223848
0.222349
0.220886
0.219458
0.218066
0.216711
0.215392
0.214111
0.212867
0.211661
0.259224
0.257848
0.256623
0.255437
0.254227
0.25297
0.251663
0.250313
0.24893
0.247524
0.246102
0.244672
0.24324
0.241808
0.240382
0.238963
0.237555
0.23616
0.23478
0.233417
0.232073
0.230748
0.229445
0.228164
0.226906
0.225672
0.224462
0.223278
0.222119
0.220986
0.21988
0.218802
0.217751
0.259217
0.257715
0.256309
0.25498
0.253698
0.252442
0.251196
0.249951
0.248705
0.247456
0.246206
0.244957
0.243712
0.242472
0.24124
0.240018
0.238806
0.237607
0.236422
0.235252
0.234097
0.23296
0.23184
0.230738
0.229655
0.228591
0.227547
0.226523
0.225519
0.224536
0.223575
0.222635
0.221717
0.259218
0.25769
0.256225
0.254822
0.253477
0.252181
0.250924
0.249697
0.248493
0.247307
0.246138
0.244983
0.243841
0.242713
0.241598
0.240497
0.23941
0.238338
0.237281
0.236239
0.235212
0.234202
0.233209
0.232232
0.231273
0.23033
0.229406
0.228498
0.227609
0.226738
0.225885
0.225051
0.224236
0.259218
0.257686
0.256207
0.25478
0.253405
0.25208
0.2508
0.24956
0.248357
0.247186
0.246044
0.244926
0.243832
0.24276
0.241708
0.240675
0.239661
0.238665
0.237687
0.236727
0.235784
0.234858
0.233949
0.233057
0.232183
0.231325
0.230484
0.229659
0.228852
0.228061
0.227287
0.226531
0.225791
0.259218
0.257686
0.256203
0.254769
0.253384
0.252045
0.250751
0.2495
0.248289
0.247115
0.245976
0.244868
0.24379
0.24274
0.241716
0.240716
0.239739
0.238785
0.237851
0.236938
0.236044
0.23517
0.234314
0.233477
0.232657
0.231855
0.23107
0.230302
0.229551
0.228816
0.228097
0.227395
0.226709
0.259218
0.257686
0.256202
0.254767
0.253378
0.252035
0.250735
0.249478
0.24826
0.247081
0.245939
0.244831
0.243755
0.242711
0.241696
0.240709
0.239748
0.238812
0.2379
0.237011
0.236143
0.235297
0.234472
0.233666
0.232879
0.232111
0.231361
0.230628
0.229913
0.229214
0.228532
0.227866
0.227216
0.259218
0.257685
0.256201
0.254766
0.253376
0.252031
0.250729
0.249469
0.248249
0.247067
0.245921
0.244811
0.243735
0.24269
0.241677
0.240693
0.239737
0.238807
0.237904
0.237025
0.23617
0.235337
0.234526
0.233737
0.232967
0.232218
0.231487
0.230775
0.23008
0.229403
0.228743
0.2281
0.227472
0.259218
0.257685
0.256201
0.254765
0.253375
0.25203
0.250727
0.249466
0.248244
0.24706
0.245913
0.244801
0.243724
0.242678
0.241664
0.24068
0.239725
0.238797
0.237896
0.23702
0.236169
0.235342
0.234537
0.233755
0.232993
0.232252
0.231531
0.230829
0.230146
0.22948
0.228832
0.228201
0.227586
0.259218
0.257685
0.256201
0.254764
0.253374
0.252029
0.250726
0.249464
0.248241
0.247057
0.245909
0.244796
0.243717
0.242671
0.241656
0.240671
0.239716
0.238788
0.237887
0.237012
0.236162
0.235336
0.234534
0.233754
0.232995
0.232258
0.23154
0.230843
0.230164
0.229503
0.228861
0.228235
0.227626
0.259218
0.257685
0.2562
0.254764
0.253374
0.252028
0.250724
0.249462
0.248239
0.247055
0.245906
0.244793
0.243714
0.242667
0.241651
0.240666
0.239709
0.238781
0.23788
0.237005
0.236155
0.235329
0.234527
0.233747
0.232989
0.232253
0.231536
0.23084
0.230163
0.229504
0.228864
0.22824
0.227634
0.259218
0.257685
0.2562
0.254764
0.253373
0.252027
0.250723
0.249461
0.248238
0.247053
0.245904
0.24479
0.24371
0.242663
0.241647
0.240661
0.239704
0.238776
0.237874
0.236998
0.236148
0.235322
0.234519
0.233739
0.232982
0.232245
0.231529
0.230833
0.230156
0.229498
0.228857
0.228235
0.227629
0.259218
0.257685
0.2562
0.254763
0.253373
0.252026
0.250722
0.24946
0.248236
0.247051
0.245902
0.244788
0.243708
0.24266
0.241644
0.240657
0.2397
0.238771
0.237869
0.236993
0.236142
0.235316
0.234513
0.233733
0.232974
0.232237
0.231521
0.230824
0.230147
0.229489
0.228848
0.228225
0.227619
0.259218
0.257684
0.2562
0.254763
0.253372
0.252026
0.250722
0.249459
0.248235
0.247049
0.2459
0.244786
0.243705
0.242657
0.241641
0.240654
0.239697
0.238767
0.237865
0.236988
0.236137
0.23531
0.234507
0.233726
0.232968
0.23223
0.231513
0.230816
0.230139
0.22948
0.228839
0.228215
0.227609
0.259218
0.257684
0.2562
0.254763
0.253372
0.252025
0.250721
0.249458
0.248234
0.247048
0.245899
0.244784
0.243703
0.242655
0.241638
0.240651
0.239693
0.238763
0.23786
0.236984
0.236132
0.235305
0.234501
0.23372
0.232961
0.232223
0.231506
0.230809
0.230131
0.229471
0.22883
0.228206
0.227599
0.259218
0.257684
0.2562
0.254762
0.253371
0.252025
0.25072
0.249457
0.248233
0.247047
0.245897
0.244782
0.243701
0.242653
0.241635
0.240648
0.23969
0.23876
0.237857
0.23698
0.236128
0.2353
0.234496
0.233715
0.232955
0.232217
0.231499
0.230801
0.230123
0.229463
0.228821
0.228196
0.227589
0.259218
0.257684
0.256199
0.254762
0.253371
0.252024
0.25072
0.249456
0.248232
0.247046
0.245896
0.244781
0.2437
0.242651
0.241633
0.240646
0.239687
0.238757
0.237853
0.236976
0.236124
0.235296
0.234491
0.233709
0.23295
0.232211
0.231493
0.230794
0.230115
0.229455
0.228812
0.228187
0.227579
0.259218
0.257684
0.256199
0.254762
0.253371
0.252024
0.250719
0.249456
0.248231
0.247045
0.245895
0.244779
0.243698
0.242649
0.241631
0.240643
0.239684
0.238754
0.23785
0.236972
0.23612
0.235291
0.234487
0.233704
0.232944
0.232205
0.231487
0.230788
0.230108
0.229447
0.228805
0.228179
0.22757
0.259218
0.257684
0.256199
0.254762
0.253371
0.252024
0.250719
0.249455
0.248231
0.247044
0.245894
0.244778
0.243696
0.242647
0.241629
0.240641
0.239682
0.238751
0.237847
0.236969
0.236116
0.235287
0.234482
0.2337
0.232939
0.2322
0.231481
0.230782
0.230102
0.22944
0.228797
0.228171
0.227562
0.259218
0.257684
0.256199
0.254762
0.253371
0.252023
0.250719
0.249455
0.24823
0.247043
0.245893
0.244777
0.243695
0.242646
0.241627
0.240639
0.23968
0.238749
0.237844
0.236966
0.236113
0.235284
0.234478
0.233695
0.232935
0.232195
0.231475
0.230776
0.230096
0.229434
0.22879
0.228163
0.227554
0.259218
0.257684
0.256199
0.254762
0.25337
0.252023
0.250718
0.249454
0.24823
0.247043
0.245892
0.244776
0.243694
0.242644
0.241626
0.240637
0.239678
0.238746
0.237842
0.236963
0.23611
0.23528
0.234475
0.233691
0.23293
0.23219
0.23147
0.23077
0.23009
0.229427
0.228783
0.228156
0.227546
0.259218
0.257684
0.256199
0.254762
0.25337
0.252023
0.250718
0.249454
0.248229
0.247042
0.245891
0.244775
0.243693
0.242643
0.241624
0.240636
0.239676
0.238744
0.23784
0.236961
0.236107
0.235277
0.234471
0.233688
0.232926
0.232186
0.231466
0.230765
0.230084
0.229422
0.228777
0.22815
0.227539
0.259218
0.257684
0.256199
0.254762
0.25337
0.252023
0.250718
0.249454
0.248229
0.247042
0.245891
0.244775
0.243692
0.242642
0.241623
0.240634
0.239674
0.238742
0.237837
0.236958
0.236104
0.235275
0.234468
0.233684
0.232923
0.232182
0.231461
0.230761
0.230079
0.229416
0.228771
0.228143
0.227532
0.259218
0.257684
0.256199
0.254762
0.25337
0.252023
0.250718
0.249454
0.248229
0.247041
0.24589
0.244774
0.243692
0.242641
0.241622
0.240633
0.239673
0.238741
0.237836
0.236957
0.236102
0.235272
0.234466
0.233682
0.232919
0.232178
0.231458
0.230757
0.230075
0.229411
0.228766
0.228138
0.227527
0.259218
0.257684
0.256199
0.254762
0.25337
0.252023
0.250718
0.249453
0.248228
0.247041
0.24589
0.244773
0.243691
0.242641
0.241621
0.240632
0.239672
0.23874
0.237834
0.236955
0.2361
0.23527
0.234463
0.233679
0.232917
0.232175
0.231454
0.230753
0.230071
0.229407
0.228761
0.228133
0.227521
0.259218
0.257684
0.256199
0.254762
0.25337
0.252023
0.250718
0.249454
0.248229
0.247041
0.24589
0.244774
0.243691
0.242641
0.241622
0.240632
0.239672
0.238739
0.237834
0.236954
0.2361
0.235269
0.234462
0.233678
0.232915
0.232173
0.231452
0.23075
0.230068
0.229404
0.228758
0.228129
0.227517
0.259218
0.257684
0.256199
0.254762
0.25337
0.252023
0.250718
0.249453
0.248228
0.247041
0.24589
0.244773
0.243691
0.24264
0.241621
0.240632
0.239671
0.238739
0.237833
0.236953
0.236099
0.235268
0.234461
0.233676
0.232914
0.232172
0.23145
0.230749
0.230066
0.229402
0.228756
0.228127
0.227514
0.259218
0.257684
0.256199
0.254762
0.253371
0.252024
0.25072
0.249456
0.248231
0.247044
0.245893
0.244777
0.243694
0.242644
0.241625
0.240635
0.239675
0.238742
0.237836
0.236957
0.236102
0.235271
0.234463
0.233679
0.232915
0.232173
0.231452
0.23075
0.230067
0.229402
0.228755
0.228126
0.227513
0.259218
0.257685
0.2562
0.254764
0.253373
0.252026
0.250721
0.249457
0.248232
0.247045
0.245895
0.244779
0.243696
0.242646
0.241627
0.240638
0.239678
0.238745
0.23784
0.23696
0.236105
0.235274
0.234466
0.233681
0.232918
0.232175
0.231453
0.23075
0.230066
0.229401
0.228753
0.228123
0.227509
0.259218
0.257685
0.256201
0.254766
0.253378
0.252033
0.250731
0.249469
0.248246
0.24706
0.24591
0.244795
0.243712
0.242662
0.241643
0.240653
0.239692
0.238759
0.237852
0.236971
0.236115
0.235282
0.234473
0.233686
0.23292
0.232175
0.23145
0.230745
0.230058
0.229389
0.228738
0.228104
0.227487
0.259219
0.257689
0.25621
0.254777
0.25339
0.252046
0.250744
0.249482
0.248259
0.247074
0.245924
0.244808
0.243726
0.242675
0.241654
0.240663
0.2397
0.238763
0.237853
0.236968
0.236106
0.235268
0.234453
0.233659
0.232886
0.232133
0.2314
0.230686
0.22999
0.229311
0.22865
0.228006
0.227378
0.25922
0.257694
0.256221
0.254799
0.253423
0.252089
0.250795
0.249538
0.248318
0.247131
0.245978
0.244857
0.243766
0.242705
0.241673
0.240668
0.23969
0.238737
0.237809
0.236904
0.236023
0.235164
0.234327
0.23351
0.232714
0.231938
0.23118
0.230441
0.22972
0.229016
0.22833
0.227659
0.227005
0.259229
0.257738
0.256292
0.254882
0.253509
0.252172
0.250871
0.249604
0.248368
0.247162
0.245985
0.244836
0.243715
0.24262
0.241551
0.240507
0.239487
0.238492
0.23752
0.23657
0.235643
0.234738
0.233854
0.23299
0.232146
0.231322
0.230517
0.229731
0.228962
0.228211
0.227477
0.22676
0.226059
0.259265
0.257822
0.256453
0.255125
0.253804
0.252482
0.251163
0.249853
0.24856
0.247289
0.246043
0.244825
0.243636
0.242477
0.241346
0.240244
0.239169
0.238122
0.2371
0.236103
0.235131
0.234182
0.233256
0.232352
0.231469
0.230606
0.229764
0.228941
0.228138
0.227353
0.226586
0.225836
0.225104
0.259599
0.258632
0.257578
0.256542
0.255587
0.254714
0.253906
0.253152
0.252446
0.251785
0.251169
0.250595
0.250065
0.249576
0.249128
0.24872
0.248349
0.248015
0.247716
0.247449
0.247213
0.247007
0.246828
0.246675
0.246547
0.246441
0.246358
0.246294
0.24625
0.246224
0.246215
0.246223
0.246244
0.266719
0.28057
0.294241
0.307622
0.320668
0.333362
0.345692
0.357648
0.369223
0.380411
0.391209
0.401616
0.411633
0.421264
0.430512
0.439385
0.447888
0.45603
0.46382
0.471267
0.478381
0.485172
0.491652
0.497829
0.503717
0.509324
0.514662
0.519743
0.524575
0.529169
0.533537
0.537685
0.54163
0.844308
1.01324
1.18874
1.37276
1.56074
1.74065
1.89947
2.02766
2.12185
2.18448
2.22181
2.24139
2.25006
2.25288
2.25288
2.25154
2.24943
2.24675
2.24372
2.24069
2.23808
2.23625
2.23547
2.23578
2.23703
2.23889
2.24089
2.24246
2.243
2.24186
2.23839
2.23199
2.22209
2.20816
2.18978
2.1666
2.1384
2.10505
2.06658
2.02314
1.97505
1.92273
1.86678
1.80789
1.74684
1.68449
1.62174
1.55946
1.49848
1.43954
1.38323
1.32999
1.28003
1.23339
1.18985
1.14901
1.11026
1.07283
1.03584
0.998331
0.95933
0.917931
0.873362
0.825069
0.7728
0.716692
0.657344
0.595864
0.533877
0.473439
0.416836
0.366243
0.323306
0.288799
0.262534
0.243565
0.230567
0.222173
0.217175
0.214599
0.213698
0.213923
0.214878
0.216293
0.217986
0.219846
0.221811
0.223854
0.225972
0.228177
0.230482
0.232901
0.235435
0.238074
0.240793
0.243548
0.246285
0.248958
0.251354
0.254541
0.352502
0.36555
0.385667
0.416152
0.46049
0.521738
0.601787
0.70057
0.815612
0.942046
1.0732
1.20166
1.32055
1.42467
1.51118
1.5797
1.63178
1.67016
1.69792
1.71793
1.73249
1.74323
1.7512
1.75701
1.76095
1.76313
1.76352
1.76201
1.75841
1.75248
1.74392
1.73241
1.71762
1.69924
1.67701
1.65075
1.62036
1.58585
1.54734
1.50511
1.45954
1.41112
1.36049
1.30833
1.2554
1.2025
1.1504
1.09983
1.05145
1.0058
0.963274
0.924105
0.888354
0.855905
0.826469
0.799596
0.774698
0.751073
0.727937
0.704468
0.679853
0.653351
0.624358
0.592484
0.55762
0.520009
0.480284
0.439471
0.398934
0.360227
0.324872
0.294099
0.268624
0.248572
0.233561
0.222899
0.215776
0.211407
0.209104
0.208296
0.208532
0.209466
0.210846
0.212492
0.214284
0.216151
0.218055
0.219984
0.221947
0.223961
0.226048
0.22823
0.230517
0.23291
0.235392
0.237933
0.240487
0.243016
0.245306
0.248441
0.20641
0.206118
0.206469
0.207882
0.210732
0.215526
0.223117
0.234605
0.251287
0.274567
0.305792
0.345991
0.395582
0.454127
0.52023
0.591627
0.665458
0.738667
0.808421
0.872452
0.929256
0.978125
1.01903
1.05241
1.07899
1.09957
1.11488
1.12554
1.13199
1.13454
1.13336
1.12854
1.12011
1.10809
1.09249
1.07338
1.05088
1.02516
0.99651
0.965285
0.931931
0.896966
0.860966
0.824541
0.788312
0.752878
0.718792
0.686533
0.656487
0.628932
0.604027
0.581813
0.562216
0.545053
0.53004
0.516807
0.504905
0.493824
0.483008
0.47188
0.459874
0.446481
0.431295
0.414074
0.394789
0.373662
0.351186
0.328093
0.305282
0.283695
0.264179
0.247348
0.23352
0.222713
0.214716
0.209175
0.205678
0.203809
0.203187
0.203479
0.204412
0.205767
0.207379
0.20913
0.21094
0.212761
0.214571
0.216368
0.218165
0.219985
0.221853
0.223794
0.225829
0.227964
0.230195
0.2325
0.234844
0.237197
0.239347
0.242378
0.202035
0.200542
0.199152
0.197866
0.196724
0.19576
0.195057
0.194735
0.19496
0.195943
0.197949
0.201295
0.206345
0.213498
0.223159
0.235702
0.251402
0.270378
0.29253
0.317505
0.344708
0.373346
0.402508
0.431259
0.458724
0.484157
0.506974
0.526768
0.543288
0.556418
0.566142
0.572515
0.575641
0.575661
0.572744
0.567088
0.558924
0.548519
0.536179
0.522244
0.507086
0.491096
0.474674
0.458206
0.442055
0.426542
0.411934
0.398437
0.386194
0.375286
0.365733
0.357504
0.350523
0.344671
0.339792
0.335696
0.332158
0.32892
0.325698
0.322186
0.318075
0.313079
0.306962
0.299576
0.290897
0.281046
0.270297
0.259055
0.247809
0.237069
0.22729
0.218817
0.211856
0.206467
0.202593
0.200091
0.198766
0.198405
0.198794
0.199738
0.201068
0.202643
0.204355
0.206123
0.207892
0.209631
0.211326
0.212981
0.21461
0.216236
0.217889
0.219595
0.221378
0.223254
0.225225
0.227279
0.229391
0.231541
0.233525
0.236399
0.210309
0.208812
0.207341
0.205886
0.204447
0.203037
0.201669
0.20036
0.199136
0.198028
0.19708
0.196341
0.195872
0.195743
0.196027
0.196805
0.198157
0.200162
0.202889
0.206391
0.210696
0.2158
0.22166
0.228187
0.235249
0.242672
0.250253
0.257771
0.265001
0.271728
0.277765
0.282954
0.287179
0.290368
0.292488
0.293548
0.293595
0.292709
0.290995
0.288582
0.285611
0.28223
0.278587
0.274821
0.271059
0.267407
0.263954
0.260767
0.257895
0.255366
0.253193
0.251377
0.249901
0.248739
0.247851
0.24718
0.246656
0.246187
0.245663
0.24496
0.243938
0.24246
0.240402
0.237678
0.234253
0.230166
0.225533
0.220542
0.215435
0.210475
0.205914
0.20196
0.19876
0.196386
0.194844
0.194083
0.194013
0.194519
0.19548
0.196775
0.198299
0.199957
0.201676
0.203399
0.205088
0.20672
0.208287
0.209794
0.211257
0.212696
0.214141
0.215621
0.21716
0.218779
0.220489
0.222285
0.224151
0.226077
0.227871
0.230543
0.216561
0.215214
0.213866
0.212522
0.211183
0.209848
0.208518
0.207197
0.205892
0.204612
0.203369
0.202176
0.20105
0.200008
0.199071
0.198261
0.1976
0.197109
0.196808
0.196713
0.196838
0.197191
0.197774
0.19858
0.199598
0.200805
0.202173
0.203662
0.20523
0.20683
0.208411
0.209926
0.21133
0.212586
0.213664
0.214543
0.215211
0.215669
0.215924
0.215991
0.215893
0.215655
0.215308
0.214878
0.214396
0.213886
0.213372
0.212874
0.212406
0.211983
0.211611
0.211297
0.211043
0.210848
0.210705
0.210603
0.210524
0.210442
0.210322
0.210118
0.209777
0.209242
0.208458
0.207379
0.205982
0.204275
0.202303
0.200147
0.197923
0.195762
0.193802
0.192161
0.190934
0.190175
0.189901
0.190093
0.190706
0.191673
0.19292
0.19437
0.195953
0.197603
0.199267
0.200905
0.202487
0.203996
0.205428
0.206787
0.208086
0.209348
0.210596
0.21186
0.213167
0.214539
0.215991
0.217528
0.219141
0.220828
0.222415
0.224842
0.220675
0.219491
0.218302
0.217106
0.215902
0.214689
0.213472
0.212251
0.211033
0.209819
0.208615
0.207426
0.206259
0.205119
0.204016
0.202957
0.201952
0.201009
0.200138
0.199346
0.198641
0.198029
0.197513
0.197095
0.196776
0.196553
0.196419
0.196368
0.19639
0.196473
0.196604
0.196771
0.196958
0.197154
0.197347
0.197525
0.197682
0.197812
0.197909
0.197972
0.198002
0.197998
0.197965
0.197904
0.19782
0.197714
0.197589
0.197449
0.197295
0.197129
0.196952
0.196765
0.196569
0.196365
0.196154
0.195934
0.195703
0.195457
0.195188
0.194884
0.19453
0.194107
0.193598
0.192986
0.192264
0.191437
0.190525
0.189569
0.188623
0.187756
0.187037
0.186533
0.186296
0.186359
0.186733
0.187407
0.188352
0.189527
0.190881
0.192362
0.193918
0.195501
0.197072
0.198599
0.200058
0.201437
0.20273
0.203942
0.205084
0.206176
0.20724
0.208303
0.209391
0.210528
0.211733
0.213015
0.214373
0.215813
0.217181
0.219331
0.223307
0.22225
0.221183
0.220105
0.219018
0.217923
0.216822
0.215714
0.214602
0.213489
0.212376
0.211268
0.210166
0.209075
0.207998
0.20694
0.205905
0.204897
0.203922
0.202983
0.202086
0.201235
0.200432
0.199682
0.198986
0.198345
0.19776
0.19723
0.196753
0.196327
0.195948
0.195612
0.195314
0.195051
0.194816
0.194605
0.194414
0.194237
0.194072
0.193915
0.193762
0.19361
0.193456
0.193298
0.193131
0.192954
0.192764
0.192556
0.192329
0.19208
0.191806
0.191506
0.191179
0.190826
0.190447
0.190045
0.189622
0.189181
0.188724
0.188252
0.187767
0.187269
0.186758
0.186234
0.185702
0.185171
0.184655
0.184179
0.183772
0.183471
0.183313
0.183332
0.183555
0.183998
0.184665
0.185544
0.186615
0.187845
0.189198
0.190633
0.192111
0.193593
0.195048
0.19645
0.197778
0.199022
0.200176
0.201245
0.202237
0.203169
0.204061
0.204937
0.205822
0.206739
0.20771
0.208747
0.209856
0.211047
0.21219
0.214036
0.224947
0.223987
0.223018
0.222038
0.221049
0.22005
0.219043
0.218028
0.217008
0.215984
0.214958
0.213932
0.212907
0.211887
0.210873
0.209868
0.208874
0.207894
0.20693
0.205986
0.205064
0.204166
0.203296
0.202456
0.201648
0.200875
0.200138
0.199438
0.198775
0.19815
0.197563
0.197013
0.196498
0.196018
0.195569
0.19515
0.194758
0.194391
0.194045
0.193718
0.193405
0.193104
0.19281
0.192519
0.192227
0.191929
0.191621
0.191298
0.190955
0.190589
0.190197
0.189775
0.189323
0.18884
0.188327
0.187786
0.187223
0.186641
0.186047
0.185447
0.184849
0.184262
0.183692
0.183151
0.182647
0.182194
0.181805
0.1815
0.181297
0.181217
0.181282
0.18151
0.181913
0.182498
0.18326
0.18419
0.185267
0.186465
0.187754
0.189101
0.190471
0.191834
0.193162
0.194433
0.195628
0.196737
0.197756
0.198686
0.199535
0.200318
0.20105
0.201754
0.202451
0.203166
0.203918
0.204723
0.205592
0.206538
0.207456
0.208981
0.225927
0.225038
0.224139
0.223231
0.222315
0.22139
0.220457
0.219517
0.218571
0.217621
0.216667
0.215711
0.214756
0.213801
0.212849
0.211902
0.21096
0.210027
0.209102
0.208188
0.207288
0.206402
0.205533
0.204683
0.203853
0.203045
0.202261
0.201503
0.200772
0.200069
0.199394
0.198748
0.198131
0.197542
0.196983
0.19645
0.195943
0.19546
0.195
0.194558
0.194134
0.193722
0.19332
0.192923
0.192526
0.192126
0.191717
0.191295
0.190855
0.190393
0.189906
0.18939
0.188844
0.188268
0.187663
0.18703
0.186375
0.185704
0.185022
0.184339
0.183665
0.18301
0.182387
0.181807
0.181284
0.180832
0.180466
0.180201
0.180053
0.180036
0.180163
0.180445
0.180886
0.181488
0.182243
0.18314
0.184159
0.185279
0.18647
0.187706
0.188955
0.190191
0.191389
0.192528
0.193591
0.194569
0.195457
0.196255
0.19697
0.197612
0.198197
0.198742
0.199268
0.199797
0.200348
0.200938
0.20158
0.20229
0.202989
0.204185
0.226477
0.225635
0.224787
0.223931
0.223067
0.222196
0.221318
0.220434
0.219544
0.21865
0.217752
0.216852
0.215951
0.215049
0.214149
0.213251
0.212357
0.211467
0.210583
0.209706
0.208837
0.207978
0.207129
0.206293
0.205471
0.204664
0.203874
0.203102
0.202349
0.201617
0.200907
0.200219
0.199554
0.198912
0.198293
0.197697
0.197123
0.196571
0.196038
0.195522
0.195021
0.194532
0.194053
0.193578
0.193104
0.192627
0.192143
0.191646
0.191133
0.1906
0.190043
0.18946
0.188849
0.18821
0.187544
0.186853
0.186142
0.185416
0.184682
0.183949
0.183227
0.182529
0.181866
0.181252
0.180701
0.180228
0.179847
0.179573
0.179418
0.179394
0.17951
0.179774
0.180186
0.180745
0.181442
0.182266
0.183197
0.184214
0.185294
0.186409
0.187533
0.188641
0.18971
0.19072
0.191656
0.192508
0.193271
0.193944
0.194532
0.195044
0.195492
0.195893
0.196263
0.196623
0.196991
0.197384
0.197816
0.198303
0.198793
0.199661
0.226759
0.225949
0.225133
0.224311
0.223483
0.222649
0.221809
0.220964
0.220114
0.21926
0.218403
0.217544
0.216683
0.215822
0.214961
0.214102
0.213244
0.21239
0.21154
0.210694
0.209854
0.209021
0.208196
0.20738
0.206573
0.205778
0.204994
0.204225
0.203469
0.20273
0.202007
0.201301
0.200614
0.199945
0.199294
0.198663
0.19805
0.197454
0.196875
0.196311
0.195759
0.195218
0.194684
0.194154
0.193625
0.193093
0.192553
0.192003
0.191437
0.190853
0.190248
0.189619
0.188964
0.188284
0.18758
0.186853
0.186108
0.18535
0.184586
0.183825
0.183077
0.182352
0.181664
0.181026
0.180451
0.179953
0.179547
0.179246
0.179062
0.179004
0.179081
0.179296
0.179651
0.180141
0.180758
0.18149
0.18232
0.183228
0.184191
0.185184
0.186184
0.187167
0.18811
0.188997
0.189812
0.190544
0.191189
0.191745
0.192215
0.192606
0.192929
0.193197
0.193427
0.193634
0.193836
0.19405
0.19429
0.194571
0.194866
0.195414
0.226887
0.226095
0.225299
0.224497
0.223691
0.22288
0.222065
0.221245
0.220422
0.219595
0.218765
0.217934
0.217101
0.216268
0.215435
0.214603
0.213773
0.212944
0.212119
0.211298
0.21048
0.209668
0.208862
0.208063
0.207271
0.206488
0.205714
0.204951
0.204199
0.203459
0.202733
0.202021
0.201323
0.20064
0.199972
0.19932
0.198683
0.19806
0.197452
0.196855
0.196269
0.195692
0.19512
0.194552
0.193984
0.193412
0.192834
0.192246
0.191644
0.191025
0.190386
0.189726
0.189043
0.188337
0.18761
0.186862
0.186098
0.185324
0.184545
0.18377
0.183007
0.182269
0.181566
0.180911
0.180318
0.179799
0.179368
0.179038
0.178818
0.178719
0.178746
0.178903
0.17919
0.179603
0.180133
0.180769
0.181495
0.182292
0.183139
0.184014
0.184893
0.185755
0.18658
0.187349
0.188049
0.188669
0.189203
0.18965
0.19001
0.190289
0.190498
0.190646
0.190748
0.190818
0.190873
0.190926
0.190993
0.191085
0.191201
0.191445
0.226935
0.226153
0.225366
0.224576
0.223782
0.222984
0.222183
0.221378
0.22057
0.21976
0.218947
0.218133
0.217318
0.216503
0.215688
0.214873
0.21406
0.213249
0.212441
0.211635
0.210833
0.210036
0.209243
0.208456
0.207675
0.206901
0.206135
0.205378
0.20463
0.203892
0.203165
0.202449
0.201746
0.201055
0.200377
0.199711
0.199059
0.198418
0.19779
0.197171
0.196561
0.195959
0.195361
0.194766
0.19417
0.193571
0.192966
0.192351
0.191724
0.191081
0.190421
0.189741
0.189041
0.18832
0.187579
0.186821
0.186049
0.185267
0.184482
0.183701
0.182934
0.182189
0.181479
0.180815
0.180208
0.179673
0.17922
0.178861
0.178607
0.178465
0.178442
0.17854
0.178758
0.179093
0.179537
0.180078
0.180702
0.181392
0.182127
0.182887
0.183651
0.184399
0.18511
0.185769
0.18636
0.186875
0.187306
0.18765
0.187909
0.188087
0.18819
0.18823
0.188217
0.188165
0.188088
0.187999
0.187912
0.187834
0.187789
0.187749
0.226946
0.226167
0.225385
0.2246
0.223812
0.223021
0.222226
0.221429
0.22063
0.219828
0.219025
0.21822
0.217415
0.21661
0.215804
0.215
0.214197
0.213396
0.212597
0.2118
0.211007
0.210218
0.209433
0.208653
0.207878
0.20711
0.206348
0.205594
0.204848
0.204111
0.203382
0.202664
0.201957
0.20126
0.200574
0.199899
0.199235
0.198582
0.197939
0.197304
0.196677
0.196057
0.19544
0.194825
0.19421
0.193592
0.192968
0.192335
0.191691
0.191032
0.190358
0.189666
0.188956
0.188227
0.18748
0.186718
0.185943
0.185161
0.184376
0.183595
0.182828
0.182083
0.18137
0.1807
0.180085
0.179536
0.179064
0.178681
0.178395
0.178213
0.178141
0.178182
0.178334
0.178594
0.178954
0.179404
0.179931
0.180517
0.181146
0.181797
0.182452
0.18309
0.183694
0.184248
0.184738
0.185154
0.185489
0.185739
0.185905
0.185989
0.185998
0.18594
0.185825
0.185665
0.185471
0.185256
0.185033
0.184805
0.184617
0.184318
0.226942
0.226164
0.225383
0.2246
0.223814
0.223025
0.222234
0.22144
0.220644
0.219846
0.219047
0.218247
0.217446
0.216645
0.215845
0.215045
0.214246
0.213449
0.212654
0.211861
0.211072
0.210286
0.209504
0.208727
0.207954
0.207187
0.206426
0.205672
0.204925
0.204186
0.203456
0.202734
0.202022
0.201319
0.200626
0.199943
0.19927
0.198606
0.197951
0.197304
0.196664
0.19603
0.195399
0.19477
0.19414
0.193508
0.19287
0.192224
0.191568
0.1909
0.190217
0.189518
0.188802
0.18807
0.187322
0.18656
0.185787
0.185007
0.184226
0.183449
0.182685
0.181942
0.181229
0.180557
0.179936
0.179377
0.178889
0.178484
0.178168
0.177949
0.177832
0.177819
0.177908
0.178097
0.178378
0.178741
0.179175
0.179663
0.18019
0.180738
0.181289
0.181824
0.182326
0.182782
0.183176
0.1835
0.183745
0.183909
0.183989
0.183989
0.183913
0.183767
0.183562
0.183306
0.183011
0.182685
0.182343
0.181983
0.181671
0.18114
0.226932
0.226154
0.225374
0.22459
0.223804
0.223016
0.222225
0.221432
0.220637
0.219841
0.219043
0.218244
0.217444
0.216644
0.215845
0.215046
0.214248
0.213451
0.212657
0.211865
0.211075
0.210289
0.209507
0.208728
0.207955
0.207186
0.206423
0.205667
0.204917
0.204174
0.203439
0.202712
0.201994
0.201285
0.200585
0.199894
0.199212
0.198539
0.197874
0.197216
0.196565
0.195919
0.195276
0.194635
0.193994
0.193351
0.192703
0.192048
0.191383
0.190708
0.190019
0.189317
0.188599
0.187867
0.18712
0.186361
0.185592
0.184817
0.184041
0.18327
0.182511
0.181772
0.181061
0.180388
0.179763
0.179195
0.178694
0.178268
0.177926
0.177673
0.177513
0.177449
0.177479
0.1776
0.177806
0.178087
0.178432
0.178827
0.179257
0.179706
0.180158
0.180594
0.181001
0.181362
0.181667
0.181904
0.182067
0.182151
0.182154
0.182077
0.181925
0.181703
0.181418
0.181079
0.180695
0.180274
0.17983
0.179355
0.178935
0.1782
0.226921
0.226143
0.225361
0.224578
0.223791
0.223002
0.222211
0.221418
0.220623
0.219826
0.219027
0.218228
0.217428
0.216627
0.215827
0.215026
0.214227
0.213429
0.212633
0.211839
0.211047
0.210258
0.209473
0.208692
0.207914
0.207142
0.206375
0.205614
0.204859
0.204112
0.203371
0.202638
0.201913
0.201197
0.200489
0.199789
0.199099
0.198416
0.197741
0.197074
0.196412
0.195756
0.195103
0.194452
0.193802
0.193149
0.192493
0.19183
0.19116
0.190479
0.189787
0.189083
0.188365
0.187633
0.186889
0.186134
0.18537
0.184601
0.183832
0.183067
0.182314
0.18158
0.180872
0.180199
0.17957
0.178995
0.178481
0.178037
0.177669
0.177384
0.177184
0.177072
0.177046
0.177102
0.177236
0.177439
0.177699
0.178005
0.178342
0.178697
0.179053
0.179396
0.17971
0.179983
0.180203
0.18036
0.180446
0.180457
0.18039
0.180246
0.180028
0.179738
0.179385
0.178974
0.178514
0.178012
0.17748
0.176908
0.176395
0.175482
0.22691
0.226131
0.225349
0.224564
0.223777
0.222987
0.222195
0.221401
0.220605
0.219807
0.219007
0.218207
0.217405
0.216603
0.215801
0.214999
0.214197
0.213396
0.212597
0.2118
0.211005
0.210212
0.209423
0.208637
0.207855
0.207078
0.206306
0.205539
0.204778
0.204024
0.203277
0.202537
0.201804
0.20108
0.200364
0.199656
0.198956
0.198264
0.19758
0.196903
0.196232
0.195566
0.194903
0.194243
0.193584
0.192923
0.19226
0.191591
0.190915
0.190231
0.189536
0.18883
0.188113
0.187383
0.186642
0.185891
0.185133
0.18437
0.183607
0.182849
0.182102
0.181372
0.180667
0.179995
0.179363
0.17878
0.178254
0.177792
0.177401
0.177084
0.176846
0.176688
0.176608
0.176603
0.176668
0.176794
0.176973
0.177192
0.17744
0.177704
0.177968
0.178221
0.178447
0.178636
0.178776
0.178858
0.178874
0.178819
0.178691
0.178488
0.178212
0.177866
0.177455
0.176984
0.17646
0.175889
0.175284
0.174628
0.174037
0.172972
0.2269
0.22612
0.225337
0.224551
0.223763
0.222972
0.222179
0.221384
0.220587
0.219787
0.218987
0.218184
0.217381
0.216577
0.215772
0.214968
0.214164
0.21336
0.212557
0.211756
0.210957
0.210161
0.209367
0.208576
0.207789
0.207006
0.206228
0.205455
0.204688
0.203926
0.203172
0.202424
0.201684
0.200951
0.200227
0.19951
0.198801
0.1981
0.197407
0.19672
0.19604
0.195364
0.194693
0.194024
0.193357
0.192688
0.192018
0.191343
0.190663
0.189975
0.189278
0.188572
0.187854
0.187127
0.186389
0.185642
0.184889
0.184132
0.183375
0.182623
0.181881
0.181155
0.180453
0.17978
0.179145
0.178555
0.178017
0.177538
0.177123
0.176776
0.176501
0.176297
0.176165
0.1761
0.176097