/*--------------------------------*- C++ -*----------------------------------*\
| =========                 |                                                 |
| \\      /  F ield         | OpenFOAM: The Open Source CFD Toolbox           |
|  \\    /   O peration     | Version:  2.1.1                                 |
|   \\  /    A nd           | Web:      www.OpenFOAM.org                      |
|    \\/     M anipulation  |                                                 |
\*---------------------------------------------------------------------------*/
FoamFile
{
    version     2.0;
    format      ascii;
    class       volScalarField;
    location    "0.125";
    object      nut;
}
// * * * * * * * * * * * * * * * * * * * * * * * * * * * * * * * * * * * * * //

dimensions      [0 2 -1 0 0 0 0];

internalField   nonuniform List<scalar> 
6820
(
4.96025e-05
5.47044e-05
5.94497e-05
6.37668e-05
6.76167e-05
7.09778e-05
7.38484e-05
7.62463e-05
7.82039e-05
7.97628e-05
8.09694e-05
8.18716e-05
8.25153e-05
8.29435e-05
8.31949e-05
8.33036e-05
8.32988e-05
8.32055e-05
8.30444e-05
8.28327e-05
8.25846e-05
8.23113e-05
8.2022e-05
8.17239e-05
8.14227e-05
8.11227e-05
8.0827e-05
8.05389e-05
8.02564e-05
7.9997e-05
7.96822e-05
7.96898e-05
7.81868e-05
0.000540295
0.000304975
0.000219965
0.000171565
0.000140528
0.000119666
0.000105141
9.47577e-05
8.71935e-05
8.1612e-05
7.74631e-05
7.4373e-05
7.20812e-05
7.04016e-05
6.91987e-05
6.83723e-05
6.78468e-05
6.75645e-05
6.74806e-05
6.75599e-05
6.77744e-05
6.81013e-05
6.85223e-05
6.90217e-05
6.95866e-05
7.0206e-05
7.08702e-05
7.15701e-05
7.22984e-05
7.30432e-05
7.38007e-05
7.45406e-05
7.51896e-05
0.00105857
0.000836084
0.000679233
0.000569608
0.000490047
0.00043011
0.000383696
0.00034685
0.000316951
0.000292237
0.000271493
0.000253856
0.0002387
0.000225557
0.000214071
0.000203967
0.000195026
0.000187075
0.000179974
0.000173608
0.000167881
0.000162716
0.000158044
0.000153809
0.000149964
0.000146466
0.000143281
0.000140377
0.000137727
0.000135313
0.000133098
0.000131122
0.000129101
0.00115953
0.00109653
0.00101166
0.000926409
0.0008498
0.000783605
0.000727047
0.000678713
0.000637188
0.000601249
0.000569894
0.00054232
0.000517886
0.000496084
0.000476505
0.000458822
0.000442769
0.000428128
0.000414718
0.00040239
0.000391016
0.00038049
0.000370721
0.00036163
0.00035315
0.000345223
0.000337799
0.000330834
0.000324296
0.000318152
0.000312389
0.000306982
0.000301961
0.00116966
0.00115863
0.00113363
0.00109757
0.00105569
0.0010122
0.000969671
0.000929413
0.000891972
0.000857472
0.000825822
0.000796831
0.000770273
0.000745916
0.000723538
0.000702937
0.000683928
0.000666349
0.000650056
0.00063492
0.000620828
0.000607682
0.000595392
0.000583881
0.000573079
0.000562923
0.00055336
0.000544339
0.000535818
0.000527759
0.000520129
0.000512904
0.000506066
0.00117006
0.00116839
0.00116306
0.00115261
0.00113713
0.00111768
0.00109554
0.00107192
0.00104772
0.00102361
0.00100002
0.000977212
0.000955351
0.000934514
0.000914729
0.00089599
0.000878267
0.000861521
0.000845704
0.000830765
0.000816652
0.000803314
0.000790701
0.000778765
0.000767461
0.000756748
0.000746586
0.000736937
0.000727768
0.000719048
0.000710749
0.000702852
0.000695332
0.00116996
0.00116938
0.00116821
0.00116569
0.00116123
0.00115458
0.00114584
0.00113528
0.00112329
0.00111025
0.00109651
0.00108236
0.00106806
0.00105377
0.00103964
0.00102578
0.00101224
0.0009991
0.000986374
0.000974085
0.000962243
0.000950849
0.000939899
0.000929385
0.000919294
0.000909615
0.000900333
0.000891432
0.000882897
0.000874714
0.000866868
0.000859352
0.00085215
0.00116994
0.0011694
0.00116883
0.00116803
0.00116674
0.00116472
0.0011618
0.00115791
0.00115305
0.00114729
0.00114075
0.00113356
0.00112584
0.00111773
0.00110933
0.00110074
0.00109206
0.00108334
0.00107466
0.00106604
0.00105755
0.00104919
0.001041
0.00103299
0.00102517
0.00101756
0.00101016
0.00100298
0.000996003
0.000989245
0.000982701
0.000976373
0.000970259
0.00116994
0.00116939
0.00116886
0.00116832
0.0011677
0.00116692
0.00116588
0.00116449
0.00116269
0.00116044
0.00115772
0.00115456
0.00115099
0.00114703
0.00114274
0.00113818
0.00113338
0.00112839
0.00112326
0.00111802
0.00111271
0.00110736
0.001102
0.00109666
0.00109134
0.00108607
0.00108086
0.00107572
0.00107067
0.00106571
0.00106085
0.00105609
0.00105145
0.00116994
0.00116938
0.00116885
0.00116833
0.00116782
0.00116729
0.00116671
0.00116605
0.00116526
0.00116432
0.00116319
0.00116186
0.00116031
0.00115854
0.00115655
0.00115437
0.00115199
0.00114944
0.00114675
0.00114391
0.00114096
0.00113792
0.0011348
0.00113161
0.00112838
0.00112512
0.00112184
0.00111855
0.00111527
0.001112
0.00110875
0.00110554
0.00110236
0.00116994
0.00116938
0.00116884
0.00116832
0.00116782
0.00116732
0.00116683
0.00116634
0.00116582
0.00116527
0.00116467
0.00116399
0.00116324
0.0011624
0.00116147
0.00116043
0.00115929
0.00115804
0.0011567
0.00115527
0.00115375
0.00115214
0.00115047
0.00114873
0.00114693
0.00114508
0.0011432
0.00114128
0.00113933
0.00113736
0.00113538
0.00113339
0.00113141
0.00116994
0.00116938
0.00116884
0.00116832
0.00116781
0.00116732
0.00116684
0.00116637
0.00116591
0.00116545
0.00116499
0.00116452
0.00116402
0.00116351
0.00116296
0.00116238
0.00116176
0.0011611
0.00116039
0.00115964
0.00115884
0.001158
0.00115711
0.00115618
0.00115521
0.00115421
0.00115317
0.0011521
0.00115101
0.00114989
0.00114875
0.0011476
0.00114644
0.00116994
0.00116938
0.00116884
0.00116832
0.00116781
0.00116732
0.00116684
0.00116637
0.00116592
0.00116547
0.00116504
0.00116461
0.00116419
0.00116377
0.00116335
0.00116292
0.00116249
0.00116204
0.00116158
0.00116111
0.00116062
0.00116012
0.0011596
0.00115906
0.0011585
0.00115792
0.00115733
0.00115672
0.00115609
0.00115545
0.0011548
0.00115414
0.00115346
0.00116994
0.00116938
0.00116884
0.00116832
0.00116781
0.00116731
0.00116683
0.00116637
0.00116591
0.00116547
0.00116504
0.00116462
0.00116422
0.00116382
0.00116343
0.00116304
0.00116266
0.00116228
0.00116191
0.00116154
0.00116116
0.00116079
0.00116041
0.00116003
0.00115965
0.00115926
0.00115886
0.00115847
0.00115807
0.00115766
0.00115725
0.00115683
0.00115642
0.00116994
0.00116938
0.00116884
0.00116832
0.00116781
0.00116731
0.00116683
0.00116636
0.00116591
0.00116547
0.00116504
0.00116462
0.00116421
0.00116382
0.00116343
0.00116306
0.00116269
0.00116233
0.00116198
0.00116164
0.0011613
0.00116096
0.00116064
0.00116031
0.00115999
0.00115968
0.00115936
0.00115905
0.00115874
0.00115843
0.00115813
0.00115782
0.00115752
0.00116994
0.00116938
0.00116884
0.00116831
0.0011678
0.00116731
0.00116683
0.00116636
0.0011659
0.00116546
0.00116503
0.00116461
0.00116421
0.00116381
0.00116343
0.00116305
0.00116269
0.00116233
0.00116199
0.00116165
0.00116132
0.001161
0.00116068
0.00116038
0.00116008
0.00115978
0.0011595
0.00115922
0.00115894
0.00115867
0.0011584
0.00115814
0.00115788
0.00116994
0.00116938
0.00116884
0.00116831
0.0011678
0.00116731
0.00116683
0.00116636
0.0011659
0.00116546
0.00116503
0.00116461
0.0011642
0.00116381
0.00116342
0.00116305
0.00116268
0.00116233
0.00116198
0.00116164
0.00116132
0.001161
0.00116069
0.00116038
0.00116009
0.0011598
0.00115952
0.00115925
0.00115898
0.00115872
0.00115847
0.00115822
0.00115798
0.00116994
0.00116938
0.00116884
0.00116831
0.0011678
0.00116731
0.00116682
0.00116635
0.0011659
0.00116546
0.00116502
0.00116461
0.0011642
0.0011638
0.00116341
0.00116304
0.00116267
0.00116232
0.00116197
0.00116164
0.00116131
0.00116099
0.00116068
0.00116037
0.00116008
0.00115979
0.00115952
0.00115924
0.00115898
0.00115872
0.00115847
0.00115823
0.00115799
0.00116994
0.00116938
0.00116884
0.00116831
0.0011678
0.0011673
0.00116682
0.00116635
0.0011659
0.00116545
0.00116502
0.0011646
0.00116419
0.0011638
0.00116341
0.00116303
0.00116267
0.00116231
0.00116196
0.00116163
0.0011613
0.00116098
0.00116067
0.00116036
0.00116007
0.00115978
0.0011595
0.00115923
0.00115897
0.00115871
0.00115846
0.00115822
0.00115798
0.00116994
0.00116938
0.00116884
0.00116831
0.0011678
0.0011673
0.00116682
0.00116635
0.00116589
0.00116545
0.00116502
0.0011646
0.00116419
0.00116379
0.00116341
0.00116303
0.00116266
0.00116231
0.00116196
0.00116162
0.00116129
0.00116097
0.00116066
0.00116035
0.00116006
0.00115977
0.00115949
0.00115922
0.00115895
0.0011587
0.00115844
0.0011582
0.00115796
0.00116994
0.00116938
0.00116884
0.00116831
0.0011678
0.0011673
0.00116682
0.00116635
0.00116589
0.00116545
0.00116502
0.0011646
0.00116419
0.00116379
0.0011634
0.00116302
0.00116266
0.0011623
0.00116195
0.00116161
0.00116128
0.00116096
0.00116065
0.00116035
0.00116005
0.00115976
0.00115948
0.00115921
0.00115894
0.00115868
0.00115843
0.00115818
0.00115794
0.00116994
0.00116938
0.00116884
0.00116831
0.0011678
0.0011673
0.00116682
0.00116635
0.00116589
0.00116545
0.00116501
0.00116459
0.00116418
0.00116379
0.0011634
0.00116302
0.00116265
0.00116229
0.00116195
0.00116161
0.00116128
0.00116095
0.00116064
0.00116034
0.00116004
0.00115975
0.00115947
0.00115919
0.00115893
0.00115867
0.00115841
0.00115817
0.00115793
0.00116994
0.00116938
0.00116884
0.00116831
0.0011678
0.0011673
0.00116682
0.00116635
0.00116589
0.00116545
0.00116501
0.00116459
0.00116418
0.00116378
0.00116339
0.00116302
0.00116265
0.00116229
0.00116194
0.0011616
0.00116127
0.00116095
0.00116063
0.00116033
0.00116003
0.00115974
0.00115946
0.00115918
0.00115892
0.00115865
0.0011584
0.00115815
0.00115791
0.00116994
0.00116938
0.00116884
0.00116831
0.0011678
0.0011673
0.00116682
0.00116635
0.00116589
0.00116544
0.00116501
0.00116459
0.00116418
0.00116378
0.00116339
0.00116301
0.00116264
0.00116229
0.00116194
0.0011616
0.00116126
0.00116094
0.00116063
0.00116032
0.00116002
0.00115973
0.00115945
0.00115917
0.0011589
0.00115864
0.00115839
0.00115814
0.0011579
0.00116994
0.00116938
0.00116884
0.00116831
0.0011678
0.0011673
0.00116682
0.00116635
0.00116589
0.00116544
0.00116501
0.00116459
0.00116418
0.00116378
0.00116339
0.00116301
0.00116264
0.00116228
0.00116193
0.00116159
0.00116126
0.00116094
0.00116062
0.00116031
0.00116002
0.00115972
0.00115944
0.00115916
0.00115889
0.00115863
0.00115838
0.00115813
0.00115788
0.00116994
0.00116938
0.00116884
0.00116831
0.0011678
0.0011673
0.00116682
0.00116635
0.00116589
0.00116544
0.00116501
0.00116459
0.00116418
0.00116378
0.00116339
0.00116301
0.00116264
0.00116228
0.00116193
0.00116159
0.00116125
0.00116093
0.00116062
0.00116031
0.00116001
0.00115972
0.00115943
0.00115915
0.00115888
0.00115862
0.00115836
0.00115811
0.00115787
0.00116994
0.00116938
0.00116884
0.00116831
0.0011678
0.0011673
0.00116682
0.00116635
0.00116589
0.00116544
0.00116501
0.00116459
0.00116417
0.00116377
0.00116338
0.001163
0.00116264
0.00116228
0.00116192
0.00116158
0.00116125
0.00116093
0.00116061
0.0011603
0.00116
0.00115971
0.00115942
0.00115915
0.00115888
0.00115861
0.00115835
0.0011581
0.00115786
0.00116994
0.00116938
0.00116884
0.00116831
0.0011678
0.0011673
0.00116682
0.00116635
0.00116589
0.00116544
0.00116501
0.00116458
0.00116417
0.00116377
0.00116338
0.001163
0.00116263
0.00116227
0.00116192
0.00116158
0.00116125
0.00116092
0.00116061
0.0011603
0.00116
0.0011597
0.00115942
0.00115914
0.00115887
0.0011586
0.00115835
0.00115809
0.00115785
0.00116994
0.00116938
0.00116884
0.00116831
0.0011678
0.0011673
0.00116682
0.00116634
0.00116589
0.00116544
0.00116501
0.00116458
0.00116417
0.00116377
0.00116338
0.001163
0.00116263
0.00116227
0.00116192
0.00116158
0.00116124
0.00116092
0.0011606
0.00116029
0.00115999
0.0011597
0.00115941
0.00115913
0.00115886
0.0011586
0.00115834
0.00115809
0.00115784
0.00116994
0.00116938
0.00116884
0.00116831
0.0011678
0.0011673
0.00116682
0.00116635
0.00116589
0.00116544
0.00116501
0.00116459
0.00116417
0.00116377
0.00116338
0.001163
0.00116263
0.00116227
0.00116192
0.00116158
0.00116124
0.00116092
0.0011606
0.00116029
0.00115999
0.0011597
0.00115941
0.00115913
0.00115886
0.00115859
0.00115833
0.00115808
0.00115783
0.00116994
0.00116938
0.00116884
0.00116831
0.0011678
0.0011673
0.00116682
0.00116635
0.00116589
0.00116544
0.00116501
0.00116459
0.00116418
0.00116377
0.00116339
0.00116301
0.00116264
0.00116227
0.00116192
0.00116158
0.00116125
0.00116092
0.0011606
0.00116029
0.00115999
0.0011597
0.00115941
0.00115913
0.00115885
0.00115858
0.00115832
0.00115807
0.00115782
0.00116994
0.00116938
0.00116884
0.00116831
0.0011678
0.00116731
0.00116682
0.00116635
0.0011659
0.00116545
0.00116502
0.0011646
0.00116418
0.00116378
0.00116339
0.00116301
0.00116264
0.00116228
0.00116193
0.00116158
0.00116125
0.00116092
0.0011606
0.00116028
0.00115998
0.00115968
0.00115938
0.0011591
0.00115882
0.00115854
0.00115827
0.00115801
0.00115775
0.00116994
0.00116938
0.00116884
0.00116832
0.00116781
0.00116731
0.00116683
0.00116636
0.0011659
0.00116546
0.00116502
0.0011646
0.00116419
0.00116379
0.0011634
0.00116301
0.00116263
0.00116226
0.0011619
0.00116155
0.0011612
0.00116085
0.00116052
0.00116018
0.00115985
0.00115953
0.00115921
0.00115889
0.00115858
0.00115827
0.00115797
0.00115766
0.00115736
0.00116994
0.00116938
0.00116884
0.00116833
0.00116782
0.00116733
0.00116685
0.00116639
0.00116593
0.00116548
0.00116503
0.00116459
0.00116416
0.00116373
0.00116331
0.00116288
0.00116246
0.00116204
0.00116161
0.00116119
0.00116076
0.00116033
0.0011599
0.00115946
0.00115902
0.00115858
0.00115814
0.00115769
0.00115724
0.00115678
0.00115632
0.00115586
0.0011554
0.00116994
0.00116939
0.00116886
0.00116835
0.00116784
0.00116733
0.00116683
0.00116632
0.00116581
0.00116528
0.00116473
0.00116417
0.00116358
0.00116297
0.00116233
0.00116166
0.00116097
0.00116024
0.00115949
0.00115871
0.0011579
0.00115707
0.00115621
0.00115532
0.00115442
0.00115349
0.00115255
0.00115159
0.00115061
0.00114963
0.00114862
0.00114761
0.00114659
0.00116995
0.0011694
0.00116886
0.00116828
0.00116765
0.00116694
0.00116613
0.00116519
0.00116414
0.00116295
0.00116163
0.00116018
0.0011586
0.0011569
0.00115508
0.00115316
0.00115113
0.00114902
0.00114683
0.00114456
0.00114224
0.00113986
0.00113744
0.00113497
0.00113248
0.00112997
0.00112744
0.0011249
0.00112235
0.00111981
0.00111726
0.00111473
0.00111221
0.00116996
0.00116916
0.00116786
0.00116595
0.00116344
0.00116031
0.00115658
0.00115229
0.00114749
0.00114225
0.00113663
0.00113068
0.00112448
0.00111808
0.00111153
0.00110487
0.00109815
0.0010914
0.00108465
0.00107792
0.00107124
0.00106463
0.0010581
0.00105167
0.00104534
0.00103912
0.00103302
0.00102704
0.00102118
0.00101546
0.00100987
0.00100441
0.00099908
0.00116831
0.00115866
0.00114501
0.00112846
0.00110972
0.00108952
0.00106848
0.00104715
0.00102589
0.00100497
0.000984596
0.000964871
0.000945871
0.000927633
0.00091017
0.000893476
0.000877537
0.000862327
0.00084782
0.000833985
0.000820789
0.000808201
0.000796188
0.000784721
0.00077377
0.000763306
0.000753302
0.000743733
0.000734576
0.000725807
0.000717406
0.000709352
0.000701625
0.00107567
0.000936194
0.000835602
0.000756863
0.000692049
0.000638282
0.000593358
0.000555449
0.000523116
0.000495254
0.000471016
0.000449749
0.000430947
0.000414211
0.000399226
0.000385737
0.000373537
0.000362456
0.000352355
0.000343114
0.000334634
0.000326831
0.000319633
0.000312976
0.000306806
0.000301077
0.000295747
0.000290779
0.000286142
0.000281806
0.000277747
0.000273941
0.000270366
0.000142979
0.000146644
0.000150174
0.000153551
0.000156773
0.000159846
0.000162775
0.000165566
0.000168224
0.000170754
0.00017316
0.000175448
0.000177623
0.000179689
0.000181651
0.000183513
0.00018528
0.000186957
0.000188547
0.000190054
0.000191483
0.000192838
0.000194121
0.000195337
0.000196489
0.000197579
0.000198612
0.00019959
0.000200516
0.000201392
0.000202221
0.000203006
0.000203749
9.09624e-05
0.000110568
0.000135275
0.00016573
0.000201193
0.000239677
0.000278833
0.000316692
0.000352166
0.0003851
0.000415999
0.000445638
0.000474714
0.000503654
0.000532594
0.000561483
0.000590236
0.000618846
0.00064742
0.000676164
0.00070532
0.000735108
0.000765677
0.000797092
0.000829334
0.00086231
0.000895874
0.000929831
0.000963955
0.000997982
0.00103163
0.00106458
0.00109653
0.00112714
0.00115611
0.00118315
0.001208
0.00123045
0.00125035
0.00126761
0.00128222
0.00129424
0.00130383
0.00131121
0.00131669
0.00132065
0.00132354
0.00132583
0.001328
0.00133054
0.00133387
0.00133833
0.00134414
0.00135137
0.0013599
0.00136944
0.00137949
0.00138933
0.00139809
0.00140476
0.00140822
0.00140734
0.00140107
0.00138855
0.00136924
0.00134309
0.00131074
0.00127368
0.00123444
0.00119665
0.00116489
0.00114399
0.00113787
0.00114796
0.00117215
0.00120529
0.00124126
0.00127535
0.00130536
0.00133117
0.00135376
0.0013743
0.00139376
0.00141279
0.00143182
0.00145112
0.00147089
0.00149128
0.00151242
0.00153441
0.00155728
0.00158098
0.00160534
0.00163008
0.00165483
0.00167918
0.00170266
0.00172501
0.00174459
0.00177064
7.63612e-05
7.85076e-05
8.19227e-05
8.73787e-05
9.57546e-05
0.000107906
0.000124526
0.000145956
0.000172054
0.00020216
0.000235175
0.000269755
0.000304559
0.000338501
0.000370913
0.000401582
0.000430668
0.000458551
0.000485674
0.000512418
0.000539047
0.000565707
0.000592448
0.000619274
0.000646169
0.000673111
0.000700066
0.000726982
0.000753773
0.000780312
0.000806429
0.000831916
0.000856537
0.000880044
0.000902187
0.000922732
0.000941471
0.000958241
0.000972931
0.000985495
0.000995956
0.00100442
0.00101106
0.00101615
0.00102002
0.00102305
0.00102569
0.00102839
0.00103161
0.00103578
0.00104125
0.0010483
0.00105708
0.0010676
0.00107971
0.00109311
0.00110735
0.00112182
0.00113577
0.00114836
0.00115872
0.00116597
0.00116939
0.00116844
0.00116297
0.00115334
0.00114058
0.00112647
0.00111355
0.00110492
0.00110369
0.00111218
0.00113092
0.00115817
0.0011904
0.00122357
0.00125461
0.00128206
0.00130594
0.00132705
0.00134638
0.00136476
0.00138274
0.00140069
0.00141881
0.00143724
0.0014561
0.00147553
0.00149565
0.00151657
0.00153837
0.00156104
0.00158449
0.0016085
0.00163278
0.00165691
0.00168047
0.00170321
0.0017233
0.00175075
0.000127027
0.000124885
0.000122659
0.000120143
0.000117579
0.000115377
0.000113773
0.000113163
0.000114111
0.000117292
0.000123376
0.000132909
0.000146204
0.000163282
0.000183859
0.000207376
0.000233079
0.000260128
0.000287721
0.000315195
0.000342086
0.000368144
0.000393302
0.000417617
0.000441212
0.000464217
0.000486737
0.000508828
0.000530492
0.000551684
0.000572319
0.00059228
0.000611435
0.000629639
0.000646753
0.000662648
0.000677222
0.000690407
0.000702182
0.000712581
0.000721702
0.000729706
0.000736821
0.000743332
0.000749568
0.000755894
0.000762681
0.000770289
0.00077904
0.000789195
0.000800938
0.000814359
0.000829449
0.000846101
0.000864111
0.000883188
0.00090296
0.000922988
0.000942772
0.00096178
0.000979478
0.000995381
0.00100913
0.00102057
0.00102986
0.00103758
0.00104472
0.00105272
0.00106324
0.00107785
0.00109752
0.00112221
0.00115069
0.00118082
0.00121036
0.00123762
0.00126189
0.00128334
0.00130264
0.00132056
0.00133777
0.00135472
0.00137167
0.00138877
0.00140609
0.00142371
0.0014417
0.00146018
0.00147926
0.00149907
0.00151971
0.00154123
0.0015636
0.00158668
0.00161021
0.00163388
0.00165724
0.0016801
0.00170049
0.00172908
0.000296486
0.000290347
0.000284135
0.000277707
0.00027088
0.000263893
0.000256724
0.000249218
0.000241235
0.000232739
0.000223859
0.000214928
0.000206465
0.000199103
0.000193487
0.000190175
0.000189568
0.000191877
0.000197122
0.000205154
0.000215689
0.000228349
0.000242709
0.000258336
0.000274828
0.000291836
0.000309076
0.000326334
0.000343454
0.000360328
0.00037688
0.000393055
0.000408812
0.000424118
0.00043895
0.000453301
0.000467182
0.000480634
0.00049373
0.000506581
0.000519337
0.00053218
0.000545319
0.000558972
0.000573354
0.000588659
0.000605035
0.000622577
0.000641312
0.000661204
0.000682151
0.000704007
0.000726591
0.000749707
0.000773159
0.000796758
0.000820329
0.000843707
0.000866734
0.000889262
0.000911159
0.000932329
0.000952742
0.000972479
0.000991769
0.00101101
0.00103074
0.00105156
0.00107395
0.00109811
0.00112379
0.00115025
0.00117645
0.00120133
0.0012242
0.00124485
0.00126351
0.00128072
0.00129705
0.00131297
0.00132882
0.00134479
0.00136094
0.0013773
0.00139389
0.00141072
0.00142786
0.00144538
0.00146342
0.00148209
0.00150153
0.00152183
0.00154299
0.00156495
0.00158753
0.00161046
0.00163336
0.00165607
0.00167649
0.0017059
0.000498569
0.000490379
0.000482426
0.00047464
0.000466918
0.000459188
0.000451479
0.000443709
0.000435757
0.000427489
0.000418769
0.000409484
0.000399566
0.000389016
0.00037793
0.000366504
0.000355038
0.000343905
0.000333518
0.000324282
0.000316545
0.000310578
0.000306551
0.000304543
0.000304547
0.000306486
0.000310242
0.000315664
0.000322593
0.000330872
0.000340359
0.000350933
0.0003625
0.000374992
0.000388366
0.000402607
0.00041772
0.000433729
0.000450668
0.000468579
0.000487501
0.000507459
0.000528457
0.000550467
0.000573422
0.000597217
0.000621704
0.000646703
0.000672008
0.000697407
0.000722687
0.000747658
0.00077216
0.000796074
0.000819331
0.000841907
0.000863826
0.000885149
0.000905967
0.000926387
0.000946526
0.000966504
0.000986444
0.00100647
0.00102671
0.00104729
0.00106829
0.00108973
0.00111151
0.00113337
0.00115493
0.00117573
0.00119537
0.00121364
0.00123054
0.00124632
0.00126132
0.00127594
0.00129047
0.00130515
0.00132008
0.00133529
0.00135074
0.00136641
0.00138227
0.00139833
0.00141461
0.0014312
0.0014482
0.00146574
0.00148397
0.00150299
0.00152286
0.00154357
0.00156501
0.00158699
0.00160916
0.00163144
0.00165163
0.00168148
0.00068704
0.000677968
0.000669198
0.000660715
0.000652467
0.000644423
0.000636545
0.000628797
0.000621141
0.000613535
0.000605937
0.0005983
0.000590577
0.000582724
0.000574705
0.000566504
0.000558129
0.000549623
0.000541068
0.000532587
0.000524341
0.000516517
0.000509319
0.000502953
0.000497619
0.000493497
0.000490742
0.000489479
0.000489803
0.00049178
0.000495449
0.000500829
0.000507919
0.000516705
0.00052716
0.000539246
0.000552914
0.000568103
0.000584734
0.000602713
0.000621923
0.000642228
0.000663469
0.000685464
0.000708016
0.000730918
0.000753955
0.000776917
0.000799605
0.000821842
0.000843476
0.000864388
0.000884499
0.000903766
0.000922191
0.000939811
0.000956701
0.000972967
0.00098874
0.00100416
0.00101939
0.00103456
0.0010498
0.00106521
0.00108085
0.00109671
0.00111277
0.0011289
0.00114495
0.00116072
0.00117604
0.00119076
0.00120484
0.00121833
0.00123142
0.0012443
0.00125721
0.00127033
0.00128379
0.00129763
0.00131184
0.00132637
0.00134116
0.00135613
0.00137126
0.00138653
0.00140196
0.00141763
0.00143362
0.00145006
0.00146708
0.00148482
0.00150336
0.00152274
0.00154291
0.00156373
0.00158494
0.00160653
0.00162623
0.00165613
0.000844146
0.000835315
0.000826705
0.00081832
0.000810142
0.000802168
0.000794386
0.000786783
0.00077935
0.00077208
0.000764972
0.000758028
0.000751254
0.000744652
0.000738227
0.000731983
0.000725925
0.000720061
0.000714409
0.000708996
0.000703863
0.000699067
0.000694682
0.000690794
0.000687504
0.00068492
0.000683154
0.000682318
0.000682519
0.000683854
0.000686407
0.000690246
0.000695419
0.000701956
0.000709861
0.00071912
0.000729694
0.000741522
0.000754519
0.000768582
0.000783585
0.000799386
0.00081583
0.000832751
0.000849978
0.000867342
0.000884677
0.00090183
0.00091866
0.000935051
0.000950907
0.000966156
0.000980757
0.000994692
0.00100797
0.00102063
0.00103273
0.00104435
0.00105557
0.0010665
0.00107724
0.00108789
0.00109855
0.00110928
0.00112011
0.00113105
0.00114209
0.00115317
0.00116423
0.00117521
0.00118609
0.00119687
0.00120762
0.00121843
0.00122944
0.00124077
0.00125252
0.00126475
0.00127747
0.00129064
0.0013042
0.00131807
0.00133218
0.00134644
0.00136082
0.0013753
0.0013899
0.00140466
0.00141967
0.00143505
0.00145091
0.00146739
0.0014846
0.0015026
0.00152141
0.00154095
0.00156101
0.00158167
0.00160063
0.00163017
0.000963394
0.000955729
0.000948163
0.000940709
0.000933376
0.000926171
0.000919096
0.000912152
0.000905343
0.000898679
0.000892172
0.000885842
0.000879709
0.000873796
0.00086813
0.000862733
0.000857631
0.000852844
0.000848397
0.00084431
0.000840608
0.000837318
0.000834471
0.000832105
0.000830259
0.000828983
0.000828327
0.000828346
0.000829094
0.000830624
0.000832985
0.000836218
0.000840355
0.000845416
0.000851407
0.000858317
0.00086612
0.000874774
0.000884218
0.000894377
0.000905162
0.000916471
0.000928194
0.000940214
0.000952414
0.000964676
0.000976888
0.000988947
0.00100076
0.00101225
0.00102335
0.00103403
0.00104424
0.00105399
0.00106328
0.00107213
0.00108059
0.00108872
0.00109656
0.00110419
0.00111167
0.00111909
0.00112649
0.00113394
0.00114147
0.0011491
0.00115687
0.00116477
0.00117282
0.00118104
0.00118947
0.00119816
0.00120717
0.0012166
0.00122652
0.00123697
0.00124799
0.00125957
0.00127167
0.00128422
0.00129715
0.00131035
0.00132376
0.0013373
0.00135093
0.00136462
0.0013784
0.00139228
0.00140635
0.0014207
0.00143545
0.00145072
0.00146663
0.00148327
0.00150068
0.00151885
0.00153762
0.00155715
0.00157515
0.00160394
0.00104617
0.00104021
0.00103424
0.00102828
0.00102235
0.00101645
0.00101059
0.00100478
0.000999047
0.000993389
0.000987829
0.000982387
0.000977087
0.000971956
0.00096702
0.00096231
0.000957855
0.000953683
0.000949821
0.000946296
0.000943132
0.000940355
0.000937988
0.000936055
0.000934581
0.000933589
0.000933106
0.000933157
0.000933767
0.000934959
0.000936755
0.000939173
0.000942223
0.000945911
0.000950235
0.000955182
0.000960731
0.00096685
0.000973496
0.000980619
0.000988156
0.000996039
0.00100419
0.00101254
0.00102101
0.00102951
0.00103797
0.00104632
0.00105449
0.00106245
0.00107013
0.00107751
0.00108458
0.00109132
0.00109774
0.00110386
0.00110971
0.00111533
0.00112075
0.00112605
0.00113126
0.00113645
0.00114167
0.00114697
0.00115241
0.00115801
0.00116384
0.00116991
0.00117628
0.00118299
0.00119011
0.00119767
0.00120574
0.00121438
0.00122361
0.00123345
0.00124389
0.0012549
0.0012664
0.00127833
0.0012906
0.00130313
0.00131583
0.00132865
0.00134153
0.00135445
0.00136741
0.00138045
0.00139362
0.00140701
0.0014207
0.00143482
0.00144949
0.0014648
0.00148082
0.00149757
0.00151497
0.00153322
0.0015501
0.00157776
0.0010987
0.0010945
0.00109024
0.00108593
0.00108157
0.00107717
0.00107276
0.00106833
0.00106391
0.0010595
0.00105512
0.0010508
0.00104654
0.00104238
0.00103834
0.00103444
0.00103072
0.00102719
0.00102388
0.00102083
0.00101805
0.00101558
0.00101342
0.00101161
0.00101015
0.00100908
0.00100841
0.00100816
0.00100833
0.00100895
0.00101002
0.00101154
0.00101353
0.00101598
0.00101889
0.00102223
0.001026
0.00103017
0.00103471
0.00103958
0.00104474
0.00105014
0.00105574
0.00106147
0.00106729
0.00107314
0.00107897
0.00108473
0.00109037
0.00109585
0.00110116
0.00110625
0.00111112
0.00111576
0.00112018
0.00112439
0.00112841
0.00113228
0.00113602
0.00113969
0.00114334
0.00114701
0.00115076
0.00115464
0.00115872
0.00116303
0.00116764
0.00117259
0.00117794
0.00118373
0.00119003
0.00119688
0.00120431
0.00121237
0.00122104
0.00123034
0.00124023
0.00125066
0.00126157
0.00127287
0.00128449
0.00129633
0.00130833
0.00132043
0.00133257
0.00134473
0.00135692
0.00136915
0.00138146
0.00139393
0.00140663
0.00141968
0.00143317
0.00144721
0.00146188
0.00147724
0.00149322
0.00151011
0.00152575
0.00155196
0.00112909
0.00112639
0.00112361
0.00112075
0.00111782
0.00111483
0.00111178
0.00110868
0.00110554
0.00110238
0.0010992
0.00109603
0.00109287
0.00108974
0.00108667
0.00108367
0.00108076
0.00107797
0.00107532
0.00107282
0.00107051
0.0010684
0.00106651
0.00106486
0.00106347
0.00106236
0.00106154
0.00106102
0.00106082
0.00106095
0.00106141
0.00106221
0.00106334
0.00106482
0.00106663
0.00106876
0.0010712
0.00107394
0.00107694
0.00108019
0.00108366
0.00108731
0.0010911
0.00109501
0.00109899
0.00110299
0.001107
0.00111096
0.00111485
0.00111864
0.00112231
0.00112583
0.00112919
0.00113239
0.00113544
0.00113834
0.00114111
0.00114378
0.00114638
0.00114895
0.00115153
0.00115417
0.00115693
0.00115987
0.00116303
0.00116648
0.00117027
0.00117446
0.0011791
0.00118424
0.00118994
0.00119623
0.00120313
0.00121066
0.00121881
0.00122758
0.00123692
0.00124677
0.00125707
0.00126774
0.0012787
0.00128987
0.00130119
0.00131258
0.001324
0.00133544
0.00134688
0.00135833
0.00136983
0.00138143
0.00139321
0.00140525
0.00141765
0.0014305
0.0014439
0.0014579
0.00147248
0.00148796
0.0015023
0.00152681
0.00114506
0.00114344
0.00114175
0.00113998
0.00113815
0.00113625
0.0011343
0.00113228
0.00113022
0.00112811
0.00112597
0.0011238
0.00112162
0.00111943
0.00111726
0.00111511
0.001113
0.00111095
0.00110897
0.00110708
0.00110529
0.00110362
0.0011021
0.00110072
0.00109952
0.0010985
0.00109768
0.00109707
0.00109668
0.00109652
0.0010966
0.00109692
0.00109749
0.0010983
0.00109935
0.00110065
0.00110217
0.00110391
0.00110586
0.00110799
0.00111029
0.00111274
0.0011153
0.00111795
0.00112067
0.00112342
0.00112618
0.00112892
0.00113162
0.00113426
0.00113681
0.00113926
0.0011416
0.00114384
0.00114596
0.00114798
0.00114991
0.00115178
0.00115362
0.00115545
0.00115733
0.00115929
0.00116139
0.00116369
0.00116623
0.00116908
0.0011723
0.00117594
0.00118006
0.00118469
0.00118989
0.00119569
0.00120211
0.00120915
0.0012168
0.00122503
0.00123382
0.0012431
0.0012528
0.00126284
0.00127317
0.00128369
0.00129433
0.00130505
0.00131579
0.00132652
0.00133724
0.00134795
0.00135868
0.00136948
0.00138039
0.0013915
0.0014029
0.00141465
0.00142685
0.00143957
0.0014528
0.00146689
0.00147991
0.00150257
0.00115266
0.00115171
0.00115071
0.00114966
0.00114856
0.00114741
0.0011462
0.00114496
0.00114366
0.00114233
0.00114096
0.00113956
0.00113814
0.0011367
0.00113525
0.00113381
0.00113237
0.00113096
0.00112958
0.00112824
0.00112695
0.00112574
0.0011246
0.00112355
0.00112261
0.00112178
0.00112109
0.00112052
0.00112011
0.00111985
0.00111976
0.00111983
0.00112008
0.0011205
0.0011211
0.00112187
0.00112281
0.00112392
0.00112518
0.00112659
0.00112812
0.00112977
0.00113151
0.00113334
0.00113522
0.00113713
0.00113907
0.001141
0.00114291
0.00114477
0.00114658
0.00114833
0.00114999
0.00115158
0.0011531
0.00115454
0.00115593
0.00115728
0.00115862
0.00115998
0.0011614
0.00116292
0.00116459
0.00116646
0.00116859
0.00117103
0.00117384
0.00117707
0.00118077
0.001185
0.00118979
0.00119516
0.00120113
0.0012077
0.00121487
0.00122259
0.00123084
0.00123956
0.00124867
0.00125812
0.00126783
0.00127771
0.00128772
0.00129778
0.00130786
0.00131793
0.00132797