/*--------------------------------*- C++ -*----------------------------------*\
| =========                 |                                                 |
| \\      /  F ield         | OpenFOAM: The Open Source CFD Toolbox           |
|  \\    /   O peration     | Version:  2.1.1                                 |
|   \\  /    A nd           | Web:      www.OpenFOAM.org                      |
|    \\/     M anipulation  |                                                 |
\*---------------------------------------------------------------------------*/
FoamFile
{
    version     2.0;
    format      ascii;
    class       volScalarField;
    location    "0.125";
    object      p;
}
// * * * * * * * * * * * * * * * * * * * * * * * * * * * * * * * * * * * * * //

dimensions      [0 2 -2 0 0 0 0];

internalField   nonuniform List<scalar> 
6820
(
-11.1362
-12.9826
-13.5578
-13.686
-13.7935
-13.8732
-13.9283
-13.9755
-14.0189
-14.0588
-14.0962
-14.1317
-14.1657
-14.1982
-14.2295
-14.2596
-14.2887
-14.317
-14.3444
-14.3712
-14.3975
-14.4233
-14.4486
-14.4736
-14.4982
-14.5224
-14.5459
-14.5685
-14.5892
-14.6069
-14.6177
-14.615
-14.588
-15.0887
-14.5541
-14.1319
-13.9422
-13.9181
-13.9298
-13.9507
-13.9794
-14.0124
-14.0468
-14.0813
-14.1157
-14.1493
-14.1821
-14.2139
-14.2448
-14.2747
-14.3038
-14.3321
-14.3596
-14.3866
-14.413
-14.439
-14.4647
-14.4899
-14.5149
-14.5394
-14.5636
-14.5871
-14.6117
-14.6357
-14.6828
-14.7438
-13.4461
-13.1425
-13.4293
-13.6747
-13.7802
-13.8561
-13.9157
-13.9658
-14.0107
-14.0517
-14.0899
-14.1258
-14.1599
-14.1925
-14.2236
-14.2536
-14.2826
-14.3107
-14.338
-14.3647
-14.3908
-14.4166
-14.442
-14.4671
-14.492
-14.5167
-14.5413
-14.5659
-14.5906
-14.6166
-14.6444
-14.6803
-14.7199
-13.9531
-13.9875
-13.985
-13.9262
-13.9188
-13.9398
-13.9669
-13.9964
-14.0281
-14.0604
-14.0926
-14.1245
-14.1557
-14.1864
-14.2163
-14.2455
-14.274
-14.3019
-14.3292
-14.356
-14.3823
-14.4083
-14.4339
-14.4594
-14.4847
-14.51
-14.5354
-14.5611
-14.5875
-14.616
-14.647
-14.6879
-14.7353
-13.7976
-13.6976
-13.742
-13.8084
-13.8618
-13.9089
-13.9503
-13.9884
-14.0251
-14.0604
-14.0944
-14.1272
-14.159
-14.1899
-14.2197
-14.2487
-14.2769
-14.3045
-14.3314
-14.3578
-14.3837
-14.4094
-14.4348
-14.46
-14.4852
-14.5104
-14.5359
-14.562
-14.5891
-14.6183
-14.6502
-14.6883
-14.731
-13.8526
-13.8361
-13.8615
-13.8849
-13.9076
-13.9375
-13.9696
-14.002
-14.0346
-14.0669
-14.0986
-14.1297
-14.1601
-14.1897
-14.2187
-14.2469
-14.2746
-14.3016
-14.3281
-14.3542
-14.38
-14.4055
-14.4308
-14.456
-14.4812
-14.5066
-14.5324
-14.5589
-14.5864
-14.6159
-14.6479
-14.6843
-14.7241
-13.8507
-13.8296
-13.8457
-13.8749
-13.9054
-13.9388
-13.9723
-14.005
-14.0374
-14.0693
-14.1005
-14.1311
-14.161
-14.1902
-14.2187
-14.2466
-14.2739
-14.3006
-14.3268
-14.3527
-14.3782
-14.4035
-14.4286
-14.4536
-14.4788
-14.5041
-14.5299
-14.5564
-14.584
-14.6132
-14.6444
-14.6785
-14.7148
-13.8647
-13.8571
-13.8726
-13.8975
-13.9231
-13.9518
-13.9819
-14.0124
-14.0429
-14.0734
-14.1034
-14.1329
-14.1619
-14.1904
-14.2182
-14.2455
-14.2722
-14.2985
-14.3244
-14.3499
-14.3751
-14.4001
-14.425
-14.4499
-14.4749
-14.5001
-14.5258
-14.5521
-14.5794
-14.608
-14.6381
-14.6701
-14.7034
-13.8775
-13.8737
-13.886
-13.9079
-13.9322
-13.9596
-13.9885
-14.0178
-14.0472
-14.0766
-14.1057
-14.1344
-14.1626
-14.1904
-14.2176
-14.2444
-14.2706
-14.2965
-14.3219
-14.3471
-14.372
-14.3967
-14.4213
-14.4459
-14.4707
-14.4957
-14.521
-14.547
-14.5738
-14.6015
-14.6304
-14.6604
-14.6911
-13.8909
-13.8903
-13.9018
-13.9216
-13.9441
-13.9693
-13.9963
-14.024
-14.052
-14.0802
-14.1082
-14.1359
-14.1633
-14.1903
-14.2169
-14.2431
-14.2688
-14.2941
-14.3192
-14.3439
-14.3684
-14.3928
-14.4171
-14.4413
-14.4657
-14.4904
-14.5153
-14.5408
-14.5668
-14.5936
-14.6211
-14.6493
-14.6778
-13.9042
-13.9053
-13.9159
-13.9336
-13.9545
-13.978
-14.0034
-14.0297
-14.0565
-14.0835
-14.1105
-14.1374
-14.164
-14.1902
-14.2161
-14.2416
-14.2668
-14.2917
-14.3162
-14.3405
-14.3646
-14.3885
-14.4124
-14.4363
-14.4603
-14.4844
-14.5088
-14.5336
-14.5589
-14.5846
-14.6108
-14.6373
-14.6639
-13.9172
-13.9193
-13.9292
-13.9454
-13.9648
-13.9868
-14.0106
-14.0355
-14.0611
-14.0869
-14.1129
-14.1388
-14.1645
-14.19
-14.2152
-14.2401
-14.2647
-14.289
-14.313
-14.3368
-14.3604
-14.3839
-14.4073
-14.4308
-14.4542
-14.4778
-14.5016
-14.5257
-14.55
-14.5746
-14.5995
-14.6245
-14.6494
-13.9298
-13.9323
-13.9417
-13.9565
-13.9745
-13.995
-14.0175
-14.0411
-14.0654
-14.0902
-14.1151
-14.1401
-14.165
-14.1897
-14.2142
-14.2384
-14.2624
-14.2861
-14.3096
-14.3329
-14.356
-14.379
-14.4019
-14.4247
-14.4476
-14.4706
-14.4937
-14.5169
-14.5403
-14.5639
-14.5875
-14.6111
-14.6344
-13.9418
-13.9444
-13.9533
-13.967
-13.9838
-14.003
-14.0241
-14.0464
-14.0696
-14.0933
-14.1173
-14.1413
-14.1654
-14.1893
-14.2131
-14.2366
-14.26
-14.2831
-14.306
-14.3287
-14.3513
-14.3737
-14.396
-14.4183
-14.4405
-14.4628
-14.4851
-14.5075
-14.5299
-14.5524
-14.5748
-14.597
-14.619
-13.9531
-13.9558
-13.9642
-13.9769
-13.9925
-14.0105
-14.0304
-14.0515
-14.0736
-14.0962
-14.1192
-14.1424
-14.1656
-14.1887
-14.2118
-14.2346
-14.2573
-14.2798
-14.3021
-14.3242
-14.3462
-14.368
-14.3897
-14.4113
-14.4329
-14.4544
-14.4759
-14.4974
-14.5189
-14.5402
-14.5614
-14.5824
-14.6031
-13.9638
-13.9664
-13.9743
-13.9861
-14.0007
-14.0176
-14.0363
-14.0564
-14.0773
-14.099
-14.121
-14.1433
-14.1657
-14.188
-14.2103
-14.2325
-14.2545
-14.2763
-14.298
-14.3195
-14.3408
-14.362
-14.383
-14.4039
-14.4248
-14.4455
-14.4662
-14.4867
-14.5072
-14.5275
-14.5476
-14.5674
-14.5868
-13.9737
-13.9762
-13.9836
-13.9947
-14.0083
-14.0242
-14.0418
-14.0608
-14.0808
-14.1015
-14.1226
-14.144
-14.1655
-14.1871
-14.2086
-14.2301
-14.2514
-14.2726
-14.2936
-14.3144
-14.3351
-14.3556
-14.3759
-14.3961
-14.4162
-14.4361
-14.4559
-14.4755
-14.495
-14.5142
-14.5332
-14.5518
-14.5701
-13.9828
-13.9852
-13.9922
-14.0025
-14.0153
-14.0302
-14.0469
-14.0649
-14.0839
-14.1036
-14.1239
-14.1444
-14.1651
-14.1859
-14.2067
-14.2275
-14.2481
-14.2686
-14.2889
-14.309
-14.329
-14.3488
-14.3684
-14.3879
-14.4071
-14.4262
-14.4451
-14.4638
-14.4823
-14.5005
-14.5183
-14.5358
-14.553
-13.9912
-13.9935
-14
-14.0097
-14.0217
-14.0358
-14.0515
-14.0686
-14.0867
-14.1055
-14.1249
-14.1446
-14.1645
-14.1845
-14.2046
-14.2246
-14.2445
-14.2643
-14.2839
-14.3033
-14.3226
-14.3417
-14.3605
-14.3792
-14.3977
-14.4159
-14.4339
-14.4516
-14.4691
-14.4862
-14.503
-14.5195
-14.5355
-13.9988
-14.0009
-14.0071
-14.0162
-14.0274
-14.0407
-14.0556
-14.0718
-14.0891
-14.107
-14.1255
-14.1444
-14.1636
-14.1829
-14.2022
-14.2214
-14.2406
-14.2597
-14.2786
-14.2973
-14.3159
-14.3342
-14.3523
-14.3702
-14.3878
-14.4051
-14.4222
-14.439
-14.4555
-14.4716
-14.4874
-14.5027
-14.5176
-14.0055
-14.0075
-14.0133
-14.0219
-14.0325
-14.045
-14.0592
-14.0746
-14.091
-14.1081
-14.1259
-14.144
-14.1624
-14.1809
-14.1995
-14.218
-14.2365
-14.2548
-14.273
-14.291
-14.3088
-14.3264
-14.3437
-14.3607
-14.3775
-14.394
-14.4102
-14.426
-14.4415
-14.4566
-14.4713
-14.4856
-14.4994
-14.0114
-14.0133
-14.0188
-14.0268
-14.0369
-14.0487
-14.0621
-14.0768
-14.0924
-14.1088
-14.1258
-14.1431
-14.1608
-14.1786
-14.1964
-14.2143
-14.232
-14.2497
-14.2671
-14.2844
-14.3015
-14.3182
-14.3348
-14.351
-14.3669
-14.3825
-14.3978
-14.4127
-14.4272
-14.4413
-14.455
-14.4682
-14.481
-14.0164
-14.0182
-14.0234
-14.031
-14.0405
-14.0517
-14.0645
-14.0784
-14.0933
-14.109
-14.1253
-14.1419
-14.1589
-14.176
-14.1931
-14.2103
-14.2273
-14.2443
-14.261
-14.2775
-14.2938
-14.3098
-14.3255
-14.341
-14.356
-14.3707
-14.3851
-14.3991
-14.4126
-14.4257
-14.4384
-14.4506
-14.4624
-14.0205
-14.0222
-14.0271
-14.0343
-14.0433
-14.054
-14.0661
-14.0794
-14.0937
-14.1087
-14.1243
-14.1403
-14.1565
-14.1729
-14.1894
-14.2059
-14.2222
-14.2385
-14.2545
-14.2703
-14.2858
-14.3011
-14.316
-14.3306
-14.3448
-14.3587
-14.3721
-14.3852
-14.3978
-14.4099
-14.4216
-14.4328
-14.4435
-14.0237
-14.0253
-14.03
-14.0368
-14.0454
-14.0556
-14.0672
-14.0799
-14.0936
-14.108
-14.1229
-14.1383
-14.1539
-14.1697
-14.1855
-14.2013
-14.217
-14.2325
-14.2478
-14.2629
-14.2777
-14.2922
-14.3063
-14.3201
-14.3335
-14.3465
-14.359
-14.3711
-14.3828
-14.394
-14.4047
-14.4149
-14.4246
-14.026
-14.0275
-14.0319
-14.0383
-14.0465
-14.0561
-14.0672
-14.0794
-14.0925
-14.1064
-14.1208
-14.1355
-14.1506
-14.1657
-14.1809
-14.1961
-14.2111
-14.226
-14.2407
-14.255
-14.2691
-14.2829
-14.2962
-14.3092
-14.3218
-14.3339
-14.3456
-14.3569
-14.3676
-14.3779
-14.3877
-14.3969
-14.4057
-14.0273
-14.0288
-14.033
-14.0392
-14.0471
-14.0564
-14.0671
-14.0789
-14.0915
-14.1049
-14.1187
-14.133
-14.1474
-14.162
-14.1766
-14.1912
-14.2056
-14.2198
-14.2337
-14.2474
-14.2608
-14.2737
-14.2863
-14.2985
-14.3103
-14.3216
-14.3324
-14.3428
-14.3527
-14.362
-14.3708
-14.3792
-14.3869
-14.0276
-14.0288
-14.0326
-14.0384
-14.0457
-14.0546
-14.0648
-14.0762
-14.0884
-14.1013
-14.1148
-14.1286
-14.1426
-14.1567
-14.1708
-14.1848
-14.1987
-14.2124
-14.2257
-14.2388
-14.2515
-14.2638
-14.2757
-14.2872
-14.2982
-14.3088
-14.3188
-14.3283
-14.3374
-14.3458
-14.3538
-14.3612
-14.3681
-14.0269
-14.0284
-14.0324
-14.0382
-14.0456
-14.0544
-14.0645
-14.0755
-14.0874
-14.0999
-14.1129
-14.1262
-14.1397
-14.1532
-14.1667
-14.1802
-14.1934
-14.2064
-14.2191
-14.2314
-14.2434
-14.255
-14.2661
-14.2768
-14.287
-14.2967
-14.3059
-14.3146
-14.3228
-14.3304
-14.3375
-14.344
-14.3499
-14.0247
-14.0254
-14.0281
-14.0329
-14.0394
-14.0477
-14.0575
-14.0684
-14.0801
-14.0926
-14.1055
-14.1187
-14.132
-14.1454
-14.1587
-14.1719
-14.1848
-14.1974
-14.2097
-14.2216
-14.2332
-14.2442
-14.2548
-14.2649
-14.2745
-14.2836
-14.2921
-14.3001
-14.3075
-14.3144
-14.3207
-14.3264
-14.3316
-14.0232
-14.0257
-14.03
-14.0357
-14.0428
-14.0512
-14.0607
-14.0711
-14.0823
-14.0941
-14.1063
-14.1188
-14.1314
-14.144
-14.1565
-14.1689
-14.181
-14.1929
-14.2044
-14.2155
-14.2262
-14.2365
-14.2463
-14.2555
-14.2643
-14.2726
-14.2803
-14.2874
-14.294
-14.3
-14.3054
-14.3103
-14.3146
-14.0152
-14.0132
-14.0133
-14.0167
-14.023
-14.0315
-14.0417
-14.0531
-14.0654
-14.0782
-14.0913
-14.1046
-14.1179
-14.1311
-14.1441
-14.1568
-14.1692
-14.1811
-14.1927
-14.2037
-14.2143
-14.2244
-14.2339
-14.2429
-14.2513
-14.2591
-14.2663
-14.2729
-14.279
-14.2844
-14.2893
-14.2935
-14.2972
-14.0217
-14.0281
-14.0336
-14.0384
-14.0439
-14.0509
-14.0592
-14.0685
-14.0787
-14.0895
-14.1008
-14.1122
-14.1238
-14.1355
-14.147
-14.1583
-14.1693
-14.1801
-14.1905
-14.2004
-14.2099
-14.219
-14.2275
-14.2355
-14.243
-14.2499
-14.2562
-14.262
-14.2671
-14.2717
-14.2757
-14.2791
-14.2819
-13.99
-13.9765
-13.9716
-13.9763
-13.9858
-13.9978
-14.0113
-14.0257
-14.0405
-14.0554
-14.0703
-14.0849
-14.0992
-14.1131
-14.1265
-14.1394
-14.1517
-14.1635
-14.1748
-14.1854
-14.1954
-14.2048
-14.2136
-14.2217
-14.2292
-14.2361
-14.2423
-14.2479
-14.2528
-14.2571
-14.2607
-14.2637
-14.2661
-14.0427
-14.0629
-14.0668
-14.0618
-14.0592
-14.0611
-14.0658
-14.0722
-14.08
-14.0888
-14.0983
-14.1083
-14.1185
-14.1289
-14.1391
-14.1493
-14.1592
-14.1688
-14.178
-14.1869
-14.1952
-14.2031
-14.2105
-14.2173
-14.2236
-14.2293
-14.2345
-14.239
-14.2429
-14.2463
-14.249
-14.2511
-14.2527
-13.9199
-13.8704
-13.8585
-13.8847
-13.9118
-13.9355
-13.9586
-13.981
-14.0022
-14.0222
-14.0411
-14.0589
-14.0756
-14.0914
-14.1062
-14.1202
-14.1333
-14.1456
-14.1571
-14.1678
-14.1777
-14.1869
-14.1953
-14.203
-14.21
-14.2162
-14.2217
-14.2265
-14.2307
-14.2341
-14.2368
-14.2389
-14.2403
-14.1675
-14.2022
-14.171
-14.1279
-14.0988
-14.0875
-14.0842
-14.0843
-14.0873
-14.0925
-14.0992
-14.1068
-14.1151
-14.1237
-14.1324
-14.1412
-14.1498
-14.1583
-14.1664
-14.1741
-14.1815
-14.1883
-14.1947
-14.2006
-14.2059
-14.2106
-14.2148
-14.2184
-14.2214
-14.2238
-14.2256
-14.2268
-14.2274
-13.6752
-13.5554
-13.6176
-13.719
-13.7926
-13.8435
-13.8865
-13.924
-13.9563
-13.9847
-14.0099
-14.0325
-14.0529
-14.0715
-14.0885
-14.104
-14.1183
-14.1315
-14.1435
-14.1546
-14.1647
-14.1739
-14.1822
-14.1897
-14.1964
-14.2022
-14.2073
-14.2116
-14.2152
-14.218
-14.2201
-14.2215
-14.2221
-14.8894
-14.5504
-14.2865
-14.1689
-14.1185
-14.0927
-14.077
-14.0701
-14.0695
-14.0726
-14.078
-14.0851
-14.0932
-14.1019
-14.1109
-14.1199
-14.1288
-14.1375
-14.1458
-14.1538
-14.1613
-14.1683
-14.1748
-14.1807
-14.186
-14.1907
-14.1948
-14.1983
-14.2012
-14.2034
-14.205
-14.206
-14.2064
-12.3857
-13.0922
-13.4964
-13.6485
-13.7527
-13.8345
-13.8933
-13.9375
-13.9731
-14.0025
-14.0272
-14.0485
-14.0673
-14.0841
-14.0992
-14.113
-14.1256
-14.1372
-14.1478
-14.1574
-14.1662
-14.1742
-14.1814
-14.1878
-14.1935
-14.1984
-14.2025
-14.206
-14.2087
-14.2107
-14.212
-14.2127
-14.2126
-14.4844
-14.718
-14.8694
-14.957
-15.0124
-15.0509
-15.0848
-15.1241
-15.1763
-15.2426
-15.3219
-15.4119
-15.5094
-15.6106
-15.7117
-15.8095
-15.9011
-15.9844
-16.0577
-16.1197
-16.1698
-16.2074
-16.2322
-16.2441
-16.2428
-16.2281
-16.1995
-16.1564
-16.098
-16.0236
-15.9321
-15.8227
-15.6942
-15.5458
-15.3765
-15.1857
-14.9725
-14.7367
-14.478
-14.1965
-13.8927
-13.5673
-13.2215
-12.8569
-12.4753
-12.079
-11.6705
-11.2527
-10.8284
-10.4007
-9.97264
-9.54701
-9.12652
-8.71355
-8.31009
-7.91772
-7.53751
-7.17006
-6.81547
-6.47336
-6.14292
-5.82295
-5.51196
-5.20822
-4.9099
-4.61513
-4.32216
-4.02944
-3.73577
-3.44043
-3.14329
-2.84491
-2.54666
-2.25075
-1.96018
-1.6786
-1.41
-1.1583
-0.926961
-0.718689
-0.53528
-0.377528
-0.245235
-0.137306
-0.0519136
0.0132798
0.0609053
0.0936609
0.114179
0.124831
0.127802
0.124765
0.117448
0.10652
0.0938458
0.0781632
0.0636633
0.0433118
0.0318237
0.000324253
-15.0976
-15.2304
-15.1584
-15.0884
-15.0486
-15.0185
-15.013
-15.0281
-15.0686
-15.1331
-15.2172
-15.3157
-15.4232
-15.5339
-15.6431
-15.7465
-15.8412
-15.9252
-15.9975
-16.0573
-16.1047
-16.1395
-16.1618
-16.1714
-16.1682
-16.1518
-16.1217
-16.0772
-16.0177
-15.9422
-15.8499
-15.7398
-15.611
-15.4625
-15.2935
-15.1033
-14.8913
-14.6571
-14.4005
-14.1217
-13.8211
-13.4995
-13.158
-12.7981
-12.4217
-12.031
-11.6283
-11.2165
-10.7982
-10.3765
-9.95425
-9.53415
-9.11883
-8.71057
-8.31132
-7.92261
-7.54551
-7.18061
-6.82805
-6.48747
-6.15811
-5.83884
-5.52822
-5.22459
-4.92618
-4.6312
-4.33794
-4.04496
-3.75113
-3.45581
-3.15899
-2.86135
-2.56437
-2.27031
-1.98214
-1.70337
-1.43767
-1.18864
-0.959468
-0.752678
-0.569994
-0.412205
-0.279174
-0.169899
-0.0826759
-0.0152963
0.0347432
0.0700262
0.0930925
0.10624
0.111609
0.110826
0.105631
0.0966416
0.0858277
0.0717395
0.0590205
0.039742
0.0305413
-0.00136443
-14.7772
-14.7754
-14.7976
-14.8549
-14.9161
-14.9654
-15.0006
-15.0412
-15.0912
-15.1512
-15.2216
-15.3015
-15.3889
-15.4807
-15.574
-15.6655
-15.7528
-15.8331
-15.9046
-15.9656
-16.015
-16.052
-16.076
-16.0868
-16.084
-16.0675
-16.0368
-15.9914
-15.9309
-15.8545
-15.7614
-15.6507
-15.5216
-15.3732
-15.2047
-15.0155
-14.8049
-14.5726
-14.3186
-14.0429
-13.7459
-13.4285
-13.0917
-12.737
-12.3662
-11.9814
-11.5849
-11.1794
-10.7674
-10.3519
-9.93565
-9.52123
-9.11117
-8.70768
-8.31266
-7.9276
-7.55353
-7.19107
-6.84036
-6.5011
-6.17258
-5.85373
-5.54319
-5.23938
-4.94062
-4.64519
-4.35151
-4.05821
-3.76429
-3.46924
-3.17313
-2.87675
-2.58163
-2.28999
-2.00469
-1.72895
-1.46622
-1.2198
-0.992698
-0.787309
-0.605297
-0.447451
-0.313679
-0.20307
-0.114029
-0.044473
0.00797782
0.0457957
0.0714281
0.0870984
0.0948983
0.0964148
0.0933872
0.0863889
0.0774879
0.0650488
0.0541611
0.0360147
0.0291348
-0.00309659
-14.8359
-14.9561
-15.0214
-15.0414
-15.0395
-15.0298
-15.0267
-15.0478
-15.0841
-15.1341
-15.1985
-15.275
-15.3598
-15.449
-15.5387
-15.6254
-15.7062
-15.7792
-15.8429
-15.8961
-15.9385
-15.9694
-15.9886
-15.9958
-15.9904
-15.972
-15.9402
-15.8941
-15.8331
-15.7564
-15.6632
-15.5526
-15.4238
-15.276
-15.1084
-14.9205
-14.7117
-14.4817
-14.2305
-13.9581
-13.665
-13.3521
-13.0203
-12.6711
-12.3061
-11.9275
-11.5375
-11.1385
-10.7331
-10.3241
-9.91408
-9.50561
-9.10107
-8.7026
-8.31201
-7.93075
-7.55985
-7.1999
-6.85108
-6.51313
-6.1854
-5.8669
-5.55635
-5.2523
-4.95314
-4.6573
-4.36329
-4.06987
-3.77616
-3.48175
-3.18681
-2.89217
-2.59933
-2.31042
-2.02811
-1.75543
-1.49557
-1.25166
-1.02654
-0.822489
-0.64112
-0.483213
-0.348714
-0.236789
-0.145951
-0.0742354
-0.0193812
0.0209738
0.049185
0.0674012
0.0776648
0.0815199
0.0807059
0.075749
0.0688136
0.0580784
0.049075
0.0321173
0.0276027
-0.00488544
-14.792
-14.8379
-14.849
-14.8604
-14.8859
-14.9285
-14.9716
-15.0114
-15.0583
-15.1143
-15.1791
-15.2513
-15.3287
-15.4088
-15.4891
-15.5671
-15.6408
-15.7081
-15.7676
-15.8179
-15.858
-15.8871
-15.9044
-15.9095
-15.902
-15.8814
-15.8472
-15.7989
-15.7358
-15.6573
-15.5627
-15.4511
-15.3217
-15.1738
-15.0066
-14.8197
-14.6124
-14.3846
-14.1361
-13.8671
-13.5781
-13.2697
-12.9431
-12.5995
-12.2406
-11.8684
-11.4851
-11.0929
-10.6944
-10.2922
-9.88868
-9.48642
-9.08767
-8.69447
-8.30856
-7.93134
-7.5638
-7.20656
-6.85979
-6.52329
-6.19648
-5.87844
-5.56801
-5.26383
-4.96443
-4.66835
-4.37425
-4.08099
-3.78781
-3.49438
-3.20094
-2.9083
-2.61792
-2.3318
-2.05245
-1.78272
-1.52562
-1.28412
-1.0609
-0.85815
-0.677409
-0.519445
-0.384236
-0.271018
-0.178406
-0.10455
-0.0473027
-0.00441111
0.0263891
0.0471716
0.0599284
0.0661595
0.0676025
0.0647353
0.0598161
0.0508384
0.0437707
0.028058
0.0259547
-0.00672488
-14.7771
-14.8361
-14.8849
-14.9272
-14.9608
-14.9751
-14.9932
-15.0218
-15.0598
-15.1071
-15.1635
-15.2276
-15.2975
-15.3707
-15.4446
-15.5165
-15.5842
-15.6457
-15.6995
-15.7443
-15.7791
-15.8034
-15.8166
-15.8181
-15.8075
-15.7843
-15.7479
-15.6978
-15.6332
-15.5535
-15.4579
-15.3456
-15.2159
-15.0681
-14.9015
-14.7155
-14.5098
-14.2841
-14.0383
-13.7727
-13.4876
-13.1838
-12.8623
-12.5244
-12.1717
-11.806
-11.4294
-11.0442
-10.6527
-10.2574
-9.86067
-9.46482
-9.07205
-8.6843
-8.30325
-7.93024
-7.56624
-7.21186
-6.8673
-6.53241
-6.20666
-5.88924
-5.57909
-5.27495
-4.9755
-4.67939
-4.38539
-4.09252
-3.80007
-3.50781
-3.21599
-2.92542
-2.63747
-2.35406
-2.07757
-1.81068
-1.55625
-1.31708
-1.09572
-0.894242
-0.714124
-0.556113
-0.420214
-0.305731
-0.211371
-0.135394
-0.0757674
-0.0303423
0.0030544
0.0264212
0.0416985
0.0503411
0.0540827
0.0533522
0.0504985
0.0433315
0.0382501
0.0238391
0.0241946
-0.00861421
-14.7596
-14.8072
-14.8419
-14.8661
-14.8877
-14.9211
-14.9538
-14.9905
-15.0329
-15.0817
-15.137
-15.1981
-15.2632
-15.3305
-15.3978
-15.463
-15.5242
-15.5797
-15.6281
-15.6681
-15.6989
-15.7196
-15.7295
-15.7281
-15.7147
-15.6889
-15.6502
-15.5978
-15.5312
-15.4498
-15.3528
-15.2395
-15.1091
-14.9612
-14.7949
-14.6099
-14.4057
-14.1821
-13.9391
-13.6768
-13.3958
-13.0967
-12.7805
-12.4484
-12.1019
-11.7429
-11.3732
-10.9951
-10.6107
-10.2224
-9.83239
-9.44298
-9.0562
-8.67392
-8.29774
-7.92895
-7.56851
-7.21702
-6.87472
-6.54149
-6.21689
-5.90019
-5.59041
-5.28644
-4.98705
-4.69102
-4.39726
-4.10487
-3.81324
-3.52218
-3.23198
-2.94343
-2.65786
-2.37708
-2.10335
-1.83922
-1.58739
-1.35049
-1.13095
-0.930727
-0.751231
-0.593187
-0.456622
-0.340901
-0.24482
-0.166747
-0.104756
-0.056803
-0.0208049
0.00516178
0.0229847
0.0340722
0.0401523
0.0416041
0.0408642
0.0355601
0.032515
0.0194622
0.0223265
-0.0105539
-14.7431
-14.7869
-14.8247
-14.8587
-14.8908
-14.92
-14.9494
-14.9824
-15.0209
-15.0652
-15.1153
-15.1705
-15.2294
-15.2902
-15.3511
-15.4101
-15.4654
-15.5154
-15.5586
-15.5939
-15.6203
-15.6369
-15.6432
-15.6383
-15.622
-15.5934
-15.5522
-15.4978
-15.4293
-15.3464
-15.2481
-15.134
-15.0032
-14.8552
-14.6894
-14.5054
-14.3028
-14.0813
-13.8411
-13.5824
-13.3054
-13.011
-12.7
-12.3737
-12.0335
-11.681
-11.3181
-10.9469
-10.5695
-10.188
-9.8047
-9.4216
-9.0407
-8.6638
-8.29241
-7.92779
-7.57089
-7.22229
-6.88227
-6.55074
-6.22734
-5.91142
-5.6021
-5.29838
-4.99914
-4.70329
-4.40983
-4.11797
-3.82719
-3.53735
-3.24876
-2.96219
-2.67894
-2.40073
-2.1297
-1.86827
-1.61897
-1.38431
-1.16655
-0.967574
-0.788701
-0.630638
-0.493431
-0.376501
-0.27873
-0.198585
-0.134247
-0.0837748
-0.0451729
-0.0165933
0.0037981
0.0173621
0.0258189
0.0294972
0.0309178
0.0275282
0.0265687
0.0149301
0.0203547
-0.0125447
-14.727
-14.7667
-14.8023
-14.8335
-14.8631
-14.8925
-14.9238
-14.9582
-14.9966
-15.0396
-15.0871
-15.1384
-15.1926
-15.248
-15.3032
-15.3564
-15.406
-15.4505
-15.4887
-15.5193
-15.5414
-15.5542
-15.5569
-15.549
-15.5298
-15.4987
-15.4551
-15.3986
-15.3284
-15.2439
-15.1445
-15.0295
-14.8983
-14.7504
-14.5851
-14.4022
-14.2012
-13.982
-13.7446
-13.4893
-13.2164
-12.9266
-12.6208
-12.3002
-11.9661
-11.62
-11.2638
-10.8994
-10.5288
-10.1541
-9.77723
-9.40032
-9.0252
-8.65357
-8.28692
-7.92644
-7.57305
-7.22735
-6.88963
-6.55987
-6.23774
-5.92268
-5.61392
-5.31054
-5.01155
-4.71596
-4.42289
-4.13162
-3.84174
-3.55314
-3.26616
-2.98158
-2.70061
-2.42493
-2.15656
-1.89777
-1.65097
-1.4185
-1.20251
-1.00476
-0.826508
-0.66844
-0.530614
-0.412504
-0.313072
-0.230883
-0.164219
-0.111238
-0.0700321
-0.0388289
-0.0158485
0.000221504
0.0110912
0.0170387
0.0206654
0.0192409
0.0204155
0.0102461
0.0182845
-0.0145871
-14.7107
-14.7475
-14.7818
-14.8135
-14.8441
-14.8745
-14.9058
-14.9391
-14.9756
-15.0157
-15.0594
-15.1063
-15.1554
-15.2054
-15.2549
-15.3025
-15.3466
-15.3859
-15.4191
-15.4452
-15.4631
-15.472
-15.4713
-15.4601
-15.438
-15.4043
-15.3585
-15.2999
-15.2279
-15.142
-15.0415
-14.9259
-14.7944
-14.6466
-14.4819
-14.3001
-14.1008
-13.8838
-13.6493
-13.3974
-13.1285
-12.8433
-12.5427
-12.2276
-11.8994
-11.5597
-11.21
-10.8523
-10.4883
-10.1201
-9.74965
-9.3788
-9.00936
-8.64294
-8.28096
-7.92459
-7.57471
-7.23195
-6.89658
-6.56864
-6.24787
-5.93378
-5.62567
-5.32275
-5.02411
-4.72889
-4.43629
-4.14571
-3.85677
-3.56946
-3.28412
-3.00151
-2.72282
-2.44964
-2.18388
-1.9277
-1.68335
-1.45304
-1.23878
-1.04225
-0.864623
-0.706563
-0.568142
-0.448882
-0.347821
-0.263616
-0.194648
-0.13917
-0.0953636
-0.0615286
-0.035941
-0.0173375
-0.00402031
0.0042376
0.0101143
0.0107045
0.0140608
0.00541451
0.0161217
-0.0166816
-14.6944
-14.7287
-14.7614
-14.7923
-14.8222
-14.8521
-14.8828
-14.9152
-14.9502
-14.9881
-15.0288
-15.0718
-15.1164
-15.1614
-15.2058
-15.2481
-15.287
-15.3213
-15.3497
-15.3713
-15.3851
-15.3902
-15.386
-15.3717
-15.3468
-15.3105
-15.2624
-15.2018
-15.1282
-15.0409
-14.9394
-14.823
-14.6913
-14.5437
-14.3797
-14.199
-14.0014
-13.7867
-13.555
-13.3065
-13.0416
-12.7609
-12.4652
-12.1556
-11.8333
-11.4997
-11.1565
-10.8052
-10.4477
-10.086
-9.72176
-9.35687
-8.99301
-8.63173
-8.27438
-7.9221
-7.57575
-7.23594
-6.90299
-6.57695
-6.25763
-5.9446
-5.63727
-5.33491
-5.03674
-4.742
-4.44997
-4.16015
-3.87224
-3.58626
-3.30258
-3.02196
-2.74554
-2.47484
-2.21166
-1.95804
-1.71609
-1.4879
-1.27536
-1.08002
-0.903019
-0.74498
-0.605987
-0.485607
-0.382949
-0.296757
-0.225509
-0.16755
-0.121147
-0.0846746
-0.0564637
-0.0353013
-0.0195041
-0.00889617
-0.000726895
0.00192637
0.0075112
0.000440451
0.0138723
-0.0188287
-14.6779
-14.71
-14.7412
-14.7712
-14.8005
-14.8299
-14.8599
-14.8912
-14.9244
-14.9597
-14.9972
-15.0363
-15.0765
-15.1169
-15.1562
-15.1935
-15.2274
-15.2568
-15.2806
-15.2978
-15.3076
-15.309
-15.3013
-15.2839
-15.2561
-15.2174
-15.167
-15.1045
-15.0292
-14.9406
-14.838
-14.7211
-14.5891
-14.4417
-14.2784
-14.0989
-13.903
-13.6906
-13.4617
-13.2165
-12.9555
-12.6793
-12.3885
-12.0842
-11.7677
-11.4401
-11.103
-10.7581
-10.407
-10.0516
-9.69347
-9.33443
-8.97607
-8.61986
-8.26711
-7.91891
-7.57609
-7.23928
-6.90879
-6.58473
-6.26695
-5.9551
-5.64865
-5.34699
-5.04941
-4.75525
-4.46391
-4.17494
-3.88812
-3.60353
-3.32154
-3.04291
-2.76875
-2.5005
-2.23986
-1.98876
-1.74918
-1.52307
-1.3122
-1.11805
-0.941667
-0.783661
-0.644119
-0.522649
-0.418427
-0.33028
-0.256777
-0.196355
-0.147362
-0.108248
-0.0774001
-0.0536554
-0.0353475
-0.0223514
-0.0118485
-0.00708496
0.000774023
-0.00467022
0.0115429
-0.0210282
-14.6611
-14.6913
-14.7209
-14.7498
-14.7782
-14.8066
-14.8355
-14.8654
-14.8967
-14.9296
-14.9639
-14.9995
-15.0356
-15.0715
-15.1061
-15.1386
-15.1677
-15.1924
-15.2118
-15.2248
-15.2306
-15.2283
-15.2173
-15.1968
-15.1662
-15.1249
-15.0723
-15.0079
-14.931
-14.841
-14.7376
-14.62
-14.4879
-14.3407
-14.1781
-13.9998
-13.8056
-13.5954
-13.3693
-13.1275
-12.8703
-12.5984
-12.3124
-12.0134
-11.7024
-11.3807
-11.0497
-10.711
-10.3662
-10.0169
-9.66475
-9.31145
-8.9585
-8.60731
-8.25912
-7.91498
-7.57572
-7.24193
-6.91398
-6.59198
-6.27583
-5.96526
-5.65982
-5.35896
-5.0621
-4.76864
-4.47807
-4.19004
-3.90439
-3.62123
-3.34097
-3.06435
-2.79243
-2.5266
-2.26847
-2.01983
-1.78257
-1.5585
-1.34929
-1.1563
-0.980539
-0.822576
-0.682508
-0.559979
-0.454226
-0.364156
-0.288426
-0.225559
-0.173986
-0.132229
-0.0987325
-0.072384
-0.0515364
-0.0361158
-0.0232397
-0.01632
-0.00614243
-0.00991079
0.00914004
-0.0232797
-14.6441
-14.6724
-14.7005
-14.7281
-14.7554
-14.7827
-14.8103
-14.8386
-14.8679
-14.8983
-14.9297
-14.9617
-14.9939
-15.0255
-15.0556
-15.0835
-15.108
-15.1283
-15.1433
-15.1522
-15.1541
-15.1482
-15.1339
-15.1103
-15.077
-15.0332
-14.9784
-14.9121
-14.8336
-14.7424
-14.638
-14.5199
-14.3876
-14.2407
-14.0789
-13.9018
-13.7093
-13.5013
-13.2779
-13.0393
-12.7859
-12.5182
-12.237
-11.943
-11.6375
-11.3215
-10.9965
-10.6638
-10.3251
-9.98182
-9.63558
-9.28792
-8.9403
-8.59406
-8.25039
-7.9103
-7.5746
-7.24388
-6.91852
-6.59866
-6.28425
-5.97507
-5.67075
-5.37083
-5.07479
-4.78214
-4.49246
-4.20545
-3.92104
-3.63936
-3.36084
-3.08623
-2.81655
-2.55311
-2.29744
-2.05124
-1.81625
-1.59418
-1.38658
-1.19474
-1.0196
-0.861695
-0.721124
-0.597567
-0.490318
-0.398359
-0.320429
-0.255138
-0.200996
-0.156597
-0.120442
-0.0914701
-0.0680559
-0.0501758
-0.0348889
-0.0257682
-0.0132291
-0.0152737
0.00667067
-0.025582
-14.6267
-14.6534
-14.6799
-14.7061
-14.7321
-14.758
-14.7842
-14.8108
-14.838
-14.8659
-14.8943
-14.9229
-14.9513
-14.9789
-15.0048
-15.0283
-15.0485
-15.0644
-15.0753
-15.0801
-15.0783
-15.0689
-15.0512
-15.0247
-14.9886
-14.9424
-14.8855
-14.8173
-14.7372
-14.6448
-14.5395
-14.4209
-14.2885
-14.1419
-13.9808
-13.8049
-13.614
-13.4082
-13.1875
-12.9521
-12.7024
-12.4388
-12.1622
-11.8732
-11.573
-11.2626
-10.9434
-10.6167
-10.2838
-9.94645
-9.60596
-9.26384
-8.92146
-8.5801
-8.24092
-7.90487
-7.57274
-7.24513
-6.92242
-6.60477
-6.2922
-5.98452
-5.68144
-5.38256
-5.08747
-4.79574
-4.50704
-4.22115
-3.93803
-3.65788
-3.38114
-3.10854
-2.84108
-2.58
-2.32676
-2.08293
-1.85017
-1.63007
-1.42406
-1.23335
-1.05882
-0.900986
-0.759936
-0.635382
-0.526672
-0.432858
-0.352759
-0.285066
-0.228369
-0.181329
-0.142508
-0.110896
-0.0848897
-0.0645169
-0.0467829
-0.0354178
-0.020476
-0.0207504
0.00414155
-0.0279329
-14.609
-14.634
-14.659
-14.6837
-14.7083
-14.7328
-14.7573
-14.7821
-14.8071
-14.8325
-14.858
-14.8834
-14.9082
-14.9319
-14.9538
-14.9731
-14.9891
-15.0009
-15.0077
-15.0087
-15.0031
-14.9903
-14.9694
-14.9399
-14.9012
-14.8526
-14.7935
-14.7235
-14.6419
-14.5483
-14.4421
-14.323
-14.1905
-14.0442
-13.8838
-13.7091
-13.5199
-13.3163
-13.0982
-12.8659
-12.6198
-12.3603
-12.0881
-11.804
-11.509
-11.204
-10.8904
-10.5694
-10.2424
-9.91077
-9.57591
-9.23921
-8.90198
-8.56545
-8.2307
-7.89868
-7.57014
-7.24567
-6.92566
-6.61032
-6.29967
-5.9936
-5.69186
-5.39416
-5.10013
-4.80943
-4.52181
-4.23711
-3.95535
-3.67677
-3.40182
-3.13124
-2.86598
-2.60723
-2.35637
-2.11489
-1.88431
-1.66612
-1.46168
-1.27209
-1.09817
-0.940416
-0.798911
-0.673392
-0.563258
-0.467624
-0.385388
-0.315317
-0.256079
-0.206404
-0.164911
-0.130641
-0.10202
-0.079123
-0.0589078
-0.0452562
-0.0278725
-0.0263316
0.00155939
-0.0303293
-14.5909
-14.6144
-14.6378
-14.661
-14.684
-14.7069
-14.7298
-14.7526
-14.7755
-14.7983
-14.821
-14.8432
-14.8645
-14.8845
-14.9025
-14.9179
-14.9299
-14.9377
-14.9406
-14.9379
-14.9287
-14.9125
-14.8885
-14.8562
-14.8148
-14.7638
-14.7026
-14.6308
-14.5477
-14.453
-14.346
-14.2264
-14.0938
-13.9478
-13.7881
-13.6146
-13.4271
-13.2255
-13.01
-12.7808
-12.5382
-12.2826
-12.0148
-11.7354
-11.4454
-11.1457
-10.8376
-10.5222
-10.2008
-9.8748
-9.54544
-9.21405
-8.88189
-8.55011
-8.21976
-7.89174
-7.5668
-7.2455
-6.92826
-6.61528
-6.30665
-6.00229
-5.70202
-5.4056
-5.11274
-4.82318
-4.53673
-4.2533
-3.97296
-3.69599
-3.42286
-3.15429
-2.89122
-2.63477
-2.38625
-2.14705
-1.91862
-1.70231
-1.4994
-1.31091
-1.13762
-0.979953
-0.838017
-0.711568
-0.600045
-0.502629
-0.418287
-0.345865
-0.284101
-0.231796
-0.187627
-0.150687
-0.119429
-0.0939772
-0.0712486
-0.0552693
-0.0354074
-0.0320066
-0.00106933
-0.0327665
-14.5724
-14.5944
-14.6162
-14.6379
-14.6593
-14.6806
-14.7016
-14.7224
-14.7431
-14.7634
-14.7833
-14.8025
-14.8205
-14.8369
-14.8513
-14.8628
-14.8709
-14.8749
-14.8741
-14.8678
-14.8552
-14.8357
-14.8086
-14.7734
-14.7295
-14.6762
-14.613
-14.5394
-14.4549
-14.3589
-14.2512
-14.1311
-13.9984
-13.8527
-13.6938
-13.5215
-13.3355
-13.136
-12.9231
-12.6968
-12.4576
-12.2059
-11.9422
-11.6674
-11.3823
-11.0878
-10.785
-10.475
-10.1591
-9.83857
-9.51458
-9.18839
-8.86119
-8.53409
-8.2081
-7.88406
-7.56272
-7.24463
-6.9302
-6.61967
-6.31315
-6.0106
-5.71191
-5.41688
-5.1253
-4.83697
-4.55178
-4.26969
-3.99083
-3.7155
-3.44421
-3.17765
-2.91674
-2.66256
-2.41634
-2.17939
-1.95305
-1.7386
-1.53719
-1.3498
-1.17712
-1.01956
-0.877223
-0.749876
-0.637004
-0.537844
-0.45143
-0.376682
-0.31241
-0.257482
-0.210635
-0.171011
-0.137097
-0.109061
-0.0837891
-0.0654422
-0.0430688
-0.0377638
-0.00373842
-0.0352384
-14.5536
-14.5741
-14.5944
-14.6144
-14.6342
-14.6537
-14.6729
-14.6917
-14.7101
-14.728
-14.7452
-14.7613
-14.7762
-14.7892
-14.8
-14.8079
-14.8124
-14.8127
-14.8083
-14.7985
-14.7825
-14.7599
-14.7299
-14.6919
-14.6454
-14.5899
-14.5247
-14.4493
-14.3634
-14.2664
-14.1578
-14.0373
-13.9045
-13.7592
-13.601
-13.4298
-13.2454
-13.0479
-12.8374
-12.614
-12.3781
-12.1301
-11.8706
-11.6002
-11.3198
-11.0303
-10.7326
-10.4279
-10.1174
-9.80212
-9.48335
-9.16224
-8.83992
-8.51743
-8.19573
-7.87566
-7.55792
-7.24306
-6.9315
-6.62349
-6.31916
-6.01852
-5.72151
-5.42797
-5.13778
-4.85079
-4.56694
-4.28626
-4.00892
-3.73527
-3.46582
-3.20127
-2.9425
-2.69056
-2.4466
-2.21185
-1.98757
-1.77493
-1.57501
-1.3887
-1.21664
-1.05921
-0.916496
-0.788287
-0.674104
-0.573238
-0.484787
-0.407741
-0.34098
-0.283438
-0.233911
-0.191591
-0.155002
-0.124356
-0.0965124
-0.0757586
-0.0508443
-0.0435898
-0.00644213
-0.0377366
-14.5345
-14.5534