/*--------------------------------*- C++ -*----------------------------------*\
| =========                 |                                                 |
| \\      /  F ield         | OpenFOAM: The Open Source CFD Toolbox           |
|  \\    /   O peration     | Version:  2.1.1                                 |
|   \\  /    A nd           | Web:      www.OpenFOAM.org                      |
|    \\/     M anipulation  |                                                 |
\*---------------------------------------------------------------------------*/
FoamFile
{
    version     2.0;
    format      ascii;
    class       surfaceScalarField;
    location    "0.125";
    object      phi;
}
// * * * * * * * * * * * * * * * * * * * * * * * * * * * * * * * * * * * * * //

dimensions      [0 3 -1 0 0 0 0];

internalField   nonuniform List<scalar> 
13452
(
6.89923e-05
-5.05064e-07
6.88137e-05
1.78621e-07
6.82025e-05
6.11202e-07
6.72553e-05
9.47167e-07
6.61791e-05
1.07623e-06
6.5088e-05
1.09111e-06
6.40238e-05
1.06424e-06
6.30037e-05
1.02004e-06
6.20362e-05
9.67481e-07
6.11248e-05
9.11459e-07
6.02704e-05
8.54388e-07
5.94727e-05
7.9772e-07
5.87303e-05
7.424e-07
5.80412e-05
6.8909e-07
5.74029e-05
6.38235e-07
5.68128e-05
5.90116e-07
5.62679e-05
5.44885e-07
5.57653e-05
5.02598e-07
5.53021e-05
4.63236e-07
5.48754e-05
4.26731e-07
5.44824e-05
3.92984e-07
5.41205e-05
3.61882e-07
5.37872e-05
3.33319e-07
5.348e-05
3.07216e-07
5.31964e-05
2.83555e-07
5.2934e-05
2.62431e-07
5.26898e-05
2.44152e-07
5.24603e-05
2.29561e-07
5.22401e-05
2.20178e-07
5.20189e-05
2.21197e-07
5.17785e-05
2.40351e-07
5.14699e-05
3.08614e-07
4.98384e-07
5.09716e-05
7.0165e-05
-2.26076e-07
7.00412e-05
3.02426e-07
7.01818e-05
4.70551e-07
7.05092e-05
6.19807e-07
7.08598e-05
7.25635e-07
7.11588e-05
7.92079e-07
7.13836e-05
8.39385e-07
7.1536e-05
8.67702e-07
7.16237e-05
8.79722e-07
7.16558e-05
8.79424e-07
7.16404e-05
8.69755e-07
7.15851e-05
8.53042e-07
7.14964e-05
8.3109e-07
7.13801e-05
8.05365e-07
7.12413e-05
7.77041e-07
7.10844e-05
7.47055e-07
7.09131e-05
7.16154e-07
7.07308e-05
6.84922e-07
7.05402e-05
6.53817e-07
7.03438e-05
6.23185e-07
7.01434e-05
5.93294e-07
6.9941e-05
5.64352e-07
6.97378e-05
5.3653e-07
6.9535e-05
5.09988e-07
6.93336e-05
4.84918e-07
6.91345e-05
4.61561e-07
6.89383e-05
4.40387e-07
6.87459e-05
4.21964e-07
6.85581e-05
4.07979e-07
6.83801e-05
3.99148e-07
6.82179e-05
4.02547e-07
6.81207e-05
4.05828e-07
4.37141e-07
6.81819e-05
7.22816e-05
-5.11797e-08
7.23969e-05
1.87202e-07
7.25018e-05
3.65606e-07
7.25885e-05
5.33082e-07
7.26721e-05
6.42112e-07
7.27544e-05
7.09752e-07
7.28409e-05
7.52888e-07
7.2928e-05
7.80575e-07
7.30117e-05
7.95986e-07
7.30895e-05
8.01672e-07
7.31597e-05
7.99586e-07
7.32214e-05
7.91299e-07
7.32744e-05
7.78088e-07
7.33187e-05
7.61069e-07
7.33546e-05
7.41183e-07
7.33824e-05
7.19215e-07
7.34027e-05
6.95817e-07
7.34161e-05
6.7152e-07
7.34232e-05
6.46755e-07
7.34245e-05
6.21868e-07
7.34207e-05
5.9714e-07
7.34122e-05
5.72803e-07
7.33997e-05
5.4906e-07
7.33836e-05
5.26109e-07
7.33643e-05
5.04174e-07
7.33424e-05
4.83521e-07
7.33181e-05
4.64599e-07
7.32922e-05
4.47874e-07
7.32656e-05
4.34614e-07
7.32399e-05
4.24827e-07
7.32192e-05
4.23241e-07
7.32054e-05
4.19654e-07
4.41329e-07
7.32012e-05
7.45185e-05
-4.30739e-08
7.44883e-05
2.17459e-07
7.44769e-05
3.76955e-07
7.45166e-05
4.93354e-07
7.45771e-05
5.81619e-07
7.46437e-05
6.43143e-07
7.47099e-05
6.86703e-07
7.47741e-05
7.16352e-07
7.48361e-05
7.34044e-07
7.48956e-05
7.42142e-07
7.49525e-05
7.42671e-07
7.50067e-05
7.37186e-07
7.50578e-05
7.26933e-07
7.51059e-05
7.12965e-07
7.51509e-05
6.96161e-07
7.51929e-05
6.77244e-07
7.52319e-05
6.56814e-07
7.52681e-05
6.35361e-07
7.53015e-05
6.13287e-07
7.53325e-05
5.90919e-07
7.53611e-05
5.68523e-07
7.53876e-05
5.46326e-07
7.54121e-05
5.24529e-07
7.54349e-05
5.03322e-07
7.54561e-05
4.82918e-07
7.54761e-05
4.63552e-07
7.54951e-05
4.45576e-07
7.55137e-05
4.293e-07
7.55329e-05
4.15457e-07
7.55539e-05
4.03758e-07
7.55814e-05
3.9581e-07
7.56159e-05
3.85118e-07
3.76158e-07
7.56811e-05
7.66036e-05
9.21222e-09
7.66283e-05
1.92706e-07
7.66649e-05
3.40387e-07
7.67032e-05
4.55042e-07
7.67418e-05
5.43021e-07
7.67816e-05
6.03334e-07
7.68239e-05
6.44442e-07
7.68682e-05
6.72052e-07
7.69135e-05
6.88763e-07
7.69589e-05
6.96722e-07
7.70038e-05
6.97692e-07
7.7048e-05
6.93041e-07
7.7091e-05
6.8389e-07
7.71328e-05
6.71195e-07
7.71732e-05
6.55759e-07
7.72122e-05
6.38251e-07
7.72498e-05
6.19228e-07
7.7286e-05
5.9915e-07
7.73209e-05
5.78391e-07
7.73546e-05
5.57261e-07
7.73871e-05
5.36014e-07
7.74185e-05
5.14863e-07
7.74491e-05
4.93997e-07
7.74788e-05
4.73591e-07
7.75079e-05
4.53828e-07
7.75365e-05
4.34892e-07
7.75651e-05
4.17026e-07
7.7594e-05
4.00386e-07
7.76242e-05
3.85295e-07
7.76567e-05
3.71265e-07
7.76939e-05
3.58579e-07
7.77361e-05
3.42894e-07
3.25453e-07
7.77868e-05
7.88312e-05
2.39289e-08
7.88389e-05
1.85e-07
7.88572e-05
3.22103e-07
7.88862e-05
4.25995e-07
7.89228e-05
5.06448e-07
7.89623e-05
5.63868e-07
7.90028e-05
6.03965e-07
7.90436e-05
6.31254e-07
7.90843e-05
6.48025e-07
7.91248e-05
6.56251e-07
7.91648e-05
6.57651e-07
7.92043e-05
6.53577e-07
7.9243e-05
6.45123e-07
7.9281e-05
6.33212e-07
7.93182e-05
6.18612e-07
7.93545e-05
6.01962e-07
7.93899e-05
5.83791e-07
7.94245e-05
5.64537e-07
7.94583e-05
5.44558e-07
7.94914e-05
5.24146e-07
7.95239e-05
5.03545e-07
7.95558e-05
4.82956e-07
7.95873e-05
4.62552e-07
7.96184e-05
4.4249e-07
7.96493e-05
4.22916e-07
7.96802e-05
4.03962e-07
7.97115e-05
3.85764e-07
7.97435e-05
3.68357e-07
7.9777e-05
3.51779e-07
7.98128e-05
3.35482e-07
7.98523e-05
3.1908e-07
7.98954e-05
2.99782e-07
2.77034e-07
7.99438e-05
8.10848e-05
3.76991e-08
8.10949e-05
1.74919e-07
8.11185e-05
2.98468e-07
8.11494e-05
3.95104e-07
8.11843e-05
4.71512e-07
8.12206e-05
5.27546e-07
8.12576e-05
5.66976e-07
8.12951e-05
5.93805e-07
8.13327e-05
6.10415e-07
8.13702e-05
6.18737e-07
8.14074e-05
6.2042e-07
8.14442e-05
6.16771e-07
8.14805e-05
6.08842e-07
8.15162e-05
5.97519e-07
8.15513e-05
5.83539e-07
8.15857e-05
5.67514e-07
8.16196e-05
5.49954e-07
8.16528e-05
5.31276e-07
8.16856e-05
5.11825e-07
8.17178e-05
4.91883e-07
8.17497e-05
4.71679e-07
8.17812e-05
4.51405e-07
8.18126e-05
4.31218e-07
8.18438e-05
4.11252e-07
8.18751e-05
3.9162e-07
8.19067e-05
3.72405e-07
8.19388e-05
3.53659e-07
8.19718e-05
3.35331e-07
8.20063e-05
3.17295e-07
8.20427e-05
2.9902e-07
8.20819e-05
2.79922e-07
8.21235e-05
2.58211e-07
2.33106e-07
8.21674e-05
8.34101e-05
4.31183e-08
8.34202e-05
1.64886e-07
8.34412e-05
2.77469e-07
8.34689e-05
3.6734e-07
8.35016e-05
4.38853e-07
8.35367e-05
4.92418e-07
8.3573e-05
5.30722e-07
8.36097e-05
5.57073e-07
8.36465e-05
5.73644e-07
8.3683e-05
5.82191e-07
8.37192e-05
5.84247e-07
8.37549e-05
5.81063e-07
8.37901e-05
5.7366e-07
8.38247e-05
5.62892e-07
8.38588e-05
5.49474e-07
8.38923e-05
5.34e-07
8.39253e-05
5.1696e-07
8.39578e-05
4.98759e-07
8.39899e-05
4.79731e-07
8.40216e-05
4.60145e-07
8.40531e-05
4.40223e-07
8.40843e-05
4.20143e-07
8.41155e-05
4.00049e-07
8.41467e-05
3.80054e-07
8.41781e-05
3.60242e-07
8.42098e-05
3.40654e-07
8.42422e-05
3.21287e-07
8.42755e-05
3.02037e-07
8.43101e-05
2.82705e-07
8.43463e-05
2.6282e-07
8.43844e-05
2.41812e-07
8.44241e-05
2.18539e-07
1.92375e-07
8.44648e-05
8.57964e-05
4.5478e-08
8.58063e-05
1.54934e-07
8.58267e-05
2.57071e-07
8.58537e-05
3.4035e-07
8.58853e-05
4.07238e-07
8.59194e-05
4.58302e-07
8.59548e-05
4.95388e-07
8.59907e-05
5.21146e-07
8.60268e-05
5.37554e-07
8.60628e-05
5.46228e-07
8.60984e-05
5.48593e-07
8.61336e-05
5.45834e-07
8.61684e-05
5.38925e-07
8.62026e-05
5.28687e-07
8.62362e-05
5.15803e-07
8.62694e-05
5.00847e-07
8.63021e-05
4.84291e-07
8.63343e-05
4.66528e-07
8.63662e-05
4.47877e-07
8.63977e-05
4.286e-07
8.6429e-05
4.08908e-07
8.64602e-05
3.88969e-07
8.64913e-05
3.68913e-07
8.65225e-05
3.48836e-07
8.6554e-05
3.28797e-07
8.65858e-05
3.08812e-07
8.66183e-05
2.88842e-07
8.66515e-05
2.68762e-07
8.66859e-05
2.48357e-07
8.67215e-05
2.27239e-07
8.67584e-05
2.04938e-07
8.67962e-05
1.8074e-07
1.54249e-07
8.68343e-05
8.82501e-05
4.53688e-08
8.82602e-05
1.44801e-07
8.82797e-05
2.37637e-07
8.83053e-05
3.14716e-07
8.83355e-05
3.77087e-07
8.83684e-05
4.25361e-07
8.84029e-05
4.60893e-07
8.84382e-05
4.8581e-07
8.84739e-05
5.01876e-07
8.85096e-05
5.10554e-07
8.8545e-05
5.13144e-07
8.85801e-05
5.10749e-07
8.86148e-05
5.04291e-07
8.86489e-05
4.94546e-07
8.86825e-05
4.82169e-07
8.87157e-05
4.67706e-07
8.87483e-05
4.51613e-07
8.87806e-05
4.34266e-07
8.88125e-05
4.15974e-07
8.88441e-05
3.96988e-07
8.88755e-05
3.77508e-07
8.89068e-05
3.57693e-07
8.89381e-05
3.37661e-07
8.89694e-05
3.17494e-07
8.9001e-05
2.97236e-07
8.90329e-05
2.76884e-07
8.90653e-05
2.56386e-07
8.90985e-05
2.35618e-07
8.91325e-05
2.14381e-07
8.91673e-05
1.92376e-07
8.9203e-05
1.69253e-07
8.92392e-05
1.44577e-07
1.18143e-07
8.92753e-05
9.07728e-05
4.38831e-08
9.07829e-05
1.34699e-07
9.08014e-05
2.19107e-07
9.0826e-05
2.90191e-07
9.08549e-05
3.48124e-07
9.08868e-05
3.93463e-07
9.09205e-05
4.27233e-07
9.09552e-05
4.51126e-07
9.09904e-05
4.66679e-07
9.10257e-05
4.75209e-07
9.10609e-05
4.77898e-07
9.10959e-05
4.75767e-07
9.11305e-05
4.69678e-07
9.11647e-05
4.60363e-07
9.11985e-05
4.48443e-07
9.12317e-05
4.34436e-07
9.12646e-05
4.18777e-07
9.1297e-05
4.01826e-07
9.13291e-05
3.83878e-07
9.13609e-05
3.65172e-07
9.13925e-05
3.45899e-07
9.1424e-05
3.26208e-07
9.14555e-05
3.06208e-07
9.1487e-05
2.85971e-07
9.15187e-05
2.6553e-07
9.15507e-05
2.44877e-07
9.15831e-05
2.23958e-07
9.16161e-05
2.02662e-07
9.16496e-05
1.80829e-07
9.16838e-05
1.58239e-07
9.17184e-05
1.34651e-07
9.17531e-05
1.09815e-07
8.3661e-08
9.17876e-05
9.3367e-05
4.15658e-08
9.3377e-05
1.24651e-07
9.33947e-05
2.014e-07
9.34182e-05
2.66736e-07
9.3446e-05
3.20336e-07
9.34768e-05
3.62645e-07
9.35096e-05
3.94465e-07
9.35435e-05
4.17141e-07
9.35782e-05
4.32004e-07
9.36132e-05
4.4023e-07
9.36482e-05
4.42886e-07
9.36831e-05
4.40908e-07
9.37176e-05
4.35097e-07
9.37519e-05
4.26138e-07
9.37857e-05
4.14613e-07
9.38191e-05
4.01015e-07
9.38521e-05
3.85754e-07
9.38848e-05
3.69171e-07
9.39171e-05
3.51549e-07
9.39492e-05
3.33114e-07
9.3981e-05
3.14047e-07
9.40128e-05
2.94489e-07
9.40444e-05
2.74541e-07
9.40761e-05
2.54268e-07
9.4108e-05
2.337e-07
9.414e-05
2.12828e-07
9.41724e-05
1.91606e-07
9.42051e-05
1.69949e-07
9.42382e-05
1.47733e-07
9.42716e-05
1.2481e-07
9.43052e-05
1.01029e-07
9.43388e-05
7.62575e-08
5.05124e-08
9.43719e-05
9.60349e-05
3.87988e-08
9.60448e-05
1.14746e-07
9.60617e-05
1.84467e-07
9.60841e-05
2.44281e-07
9.61108e-05
2.93636e-07
9.61406e-05
3.32854e-07
9.61725e-05
3.62576e-07
9.62058e-05
3.83878e-07
9.62399e-05
3.97898e-07
9.62744e-05
4.05677e-07
9.63092e-05
4.08171e-07
9.63438e-05
4.06235e-07
9.63783e-05
4.00607e-07
9.64125e-05
3.91923e-07
9.64464e-05
3.80729e-07
9.648e-05
3.67486e-07
9.65131e-05
3.52581e-07
9.6546e-05
3.36337e-07
9.65785e-05
3.19021e-07
9.66108e-05
3.00847e-07
9.66428e-05
2.81989e-07
9.66747e-05
2.62576e-07
9.67066e-05
2.42707e-07
9.67384e-05
2.22441e-07
9.67703e-05
2.0181e-07
9.68023e-05
1.80809e-07
9.68345e-05
1.59407e-07
9.68669e-05
1.37541e-07
9.68995e-05
1.1513e-07
9.69322e-05
9.20813e-08
9.6965e-05
6.83119e-08
9.69974e-05
4.37668e-08
1.85114e-08
9.70294e-05
9.87787e-05
3.581e-08
9.87884e-05
1.05035e-07
9.88047e-05
1.6824e-07
9.88262e-05
2.22753e-07
9.88519e-05
2.67955e-07
9.88807e-05
3.04054e-07
9.89117e-05
3.31566e-07
9.89442e-05
3.51358e-07
9.89777e-05
3.64394e-07
9.90118e-05
3.71592e-07
9.90461e-05
3.73804e-07
9.90806e-05
3.71803e-07
9.91149e-05
3.66266e-07
9.91491e-05
3.5778e-07
9.91829e-05
3.46851e-07
9.92165e-05
3.33911e-07
9.92498e-05
3.19322e-07
9.92827e-05
3.03388e-07
9.93154e-05
2.8636e-07
9.93478e-05
2.68442e-07
9.938e-05
2.49795e-07
9.9412e-05
2.30547e-07
9.94439e-05
2.10788e-07
9.94758e-05
1.90579e-07
9.95077e-05
1.69953e-07
9.95395e-05
1.48915e-07
9.95715e-05
1.27448e-07
9.96035e-05
1.05516e-07
9.96356e-05
8.30711e-08
9.96676e-05
6.00645e-08
9.96995e-05
3.64636e-08
9.9731e-05
1.22612e-08
-1.2451e-08
9.97619e-05
0.000101601
3.27395e-08
0.00010161
9.55628e-08
0.000101626
1.52667e-07
0.000101647
2.02088e-07
0.000101671
2.43224e-07
0.000101699
2.76195e-07
0.000101729
3.01413e-07
0.000101761
3.19579e-07
0.000101794
3.31511e-07
0.000101828
3.38008e-07
0.000101862
3.39828e-07
0.000101896
3.37663e-07
0.00010193
3.3213e-07
0.000101964
3.23768e-07
0.000101998
3.13044e-07
0.000102031
3.00358e-07
0.000102064
2.86048e-07
0.000102097
2.70398e-07
0.00010213
2.53644e-07
0.000102163
2.35979e-07
0.000102195
2.17555e-07
0.000102227
1.98493e-07
0.000102259
1.78882e-07
0.000102291
1.58783e-07
0.000102322
1.38234e-07
0.000102354
1.17249e-07
0.000102386
9.58277e-08
0.000102417
7.39554e-08
0.000102449
5.16133e-08
0.00010248
2.87863e-08
0.000102511
5.47564e-09
0.000102541
-1.8296e-08
-4.24254e-08
0.000102571
0.000104503
2.96694e-08
0.000104513
8.63553e-08
0.000104528
1.377e-07
0.000104548
1.82222e-07
0.000104571
2.19381e-07
0.000104598
2.49226e-07
0.000104628
2.72087e-07
0.000104659
2.88535e-07
0.000104691
2.99257e-07
0.000104724
3.04947e-07
0.000104758
3.06273e-07
0.000104791
3.03854e-07
0.000104825
2.98246e-07
0.000104859
2.89941e-07
0.000104893
2.79366e-07
0.000104926
2.6689e-07
0.000104959
2.52827e-07
0.000104992
2.37441e-07
0.000105025
2.20953e-07
0.000105058
2.03543e-07
0.00010509
1.85357e-07
0.000105122
1.6651e-07
0.000105154
1.47089e-07
0.000105185
1.27157e-07
0.000105217
1.06756e-07
0.000105248
8.59127e-08
0.000105279
6.46388e-08
0.00010531
4.29394e-08
0.000105341
2.08179e-08
0.000105371
-1.71617e-09
0.000105402
-2.46388e-08
0.000105431
-4.79099e-08
-7.14229e-08
0.00010546
0.000107489
2.66461e-08
0.000107498
7.74264e-08
0.000107512
1.23293e-07
0.000107531
1.63096e-07
0.000107554
1.96363e-07
0.000107581
2.23097e-07
0.000107609
2.43558e-07
0.000107639
2.58211e-07
0.000107671
2.67632e-07
0.000107704
2.72422e-07
0.000107737
2.73165e-07
0.00010777
2.7041e-07
0.000107804
2.64655e-07
0.000107837
2.56345e-07
0.000107871
2.45869e-07
0.000107904
2.33566e-07
0.000107937
2.19724e-07
0.00010797
2.04587e-07
0.000108003
1.88362e-07
0.000108035
1.71216e-07
0.000108067
1.53289e-07
0.000108099
1.3469e-07
0.000108131
1.15505e-07
0.000108162
9.57985e-08
0.000108193
7.56195e-08
0.000108224
5.50018e-08
0.000108255
3.39702e-08
0.000108285
1.25448e-08
0.000108315
-9.25381e-09
0.000108345
-3.13989e-08
0.000108374
-5.3852e-08
0.000108403
-7.65633e-08
-9.94279e-08
0.000108431
0.00011056
2.36939e-08
0.000110568
6.87796e-08
0.000110582
1.09407e-07
0.000110601
1.44653e-07
0.000110623
1.74113e-07
0.000110648
1.97757e-07
0.000110676
2.15787e-07
0.000110706
2.28584e-07
0.000110737
2.3663e-07
0.000110769
2.40439e-07
0.000110801
2.4052e-07
0.000110834
2.37356e-07
0.000110868
2.31391e-07
0.000110901
2.23023e-07
0.000110934
2.12604e-07
0.000110967
2.00442e-07
0.000111
1.868e-07
0.000111033
1.71904e-07
0.000111065
1.55944e-07
0.000111098
1.39077e-07
0.000111129
1.21434e-07
0.000111161
1.03121e-07
0.000111192
8.42209e-08
0.000111223
6.48018e-08
0.000111254
4.4916e-08
0.000111284
2.46051e-08
0.000111314
3.90393e-09
0.000111344
-1.71557e-08
0.000111373
-3.85408e-08
0.000111402
-6.02133e-08
0.000111431
-8.21259e-08
0.000111458
-1.04224e-07
-1.26407e-07
0.000111485
0.000113718
2.08243e-08
0.000113727
6.04105e-08
0.00011374
9.60044e-08
0.000113758
1.26841e-07
0.000113779
1.52575e-07
0.000113804
1.73155e-07
0.000113831
1.88737e-07
0.00011386
1.99631e-07
0.00011389
2.06239e-07
0.000113922
2.08998e-07
0.000113954
2.08348e-07
0.000113987
2.04713e-07
0.00011402
1.98482e-07
0.000114053
1.90011e-07
0.000114086
1.79614e-07
0.000114119
1.67568e-07
0.000114151
1.54114e-07
0.000114184
1.39456e-07
0.000114216
1.2377e-07
0.000114248
1.07201e-07
0.000114279
8.98732e-08
0.00011431
7.18864e-08
0.000114341
5.33239e-08
0.000114372
3.42535e-08
0.000114402
1.47315e-08
0.000114432
-5.19466e-09
0.000114461
-2.54827e-08
0.00011449
-4.60925e-08
0.000114519
-6.69825e-08
0.000114547
-8.81073e-08
0.000114574
-1.09415e-07
0.000114601
-1.3085e-07
-1.52315e-07
0.000114626
0.000116967
1.80405e-08
0.000116975
5.23094e-08
0.000116988
8.30496e-08
0.000117005
1.09611e-07
0.000117026
1.31696e-07
0.00011705
1.49241e-07
0.000117077
1.62366e-07
0.000117105
1.7132e-07
0.000117135
1.76439e-07
0.000117166
1.78092e-07
0.000117197
1.76655e-07
0.00011723
1.72495e-07
0.000117262
1.65953e-07
0.000117295
1.57341e-07
0.000117327
1.46938e-07
0.00011736
1.34992e-07
0.000117392
1.21718e-07
0.000117425
1.07302e-07
0.000117456
9.19039e-08
0.000117488
7.56585e-08
0.000117519
5.86802e-08
0.00011755
4.10652e-08
0.00011758
2.28941e-08
0.00011761
4.23504e-09
0.00011764
-1.48535e-08
0.000117669
-3.432e-08
0.000117698
-5.4117e-08
0.000117726
-7.41986e-08
0.000117753
-9.4518e-08
0.00011778
-1.15026e-07
0.000117807
-1.35668e-07
0.000117832
-1.56389e-07
-1.77098e-07
0.000117857
0.000120309
1.53414e-08
0.000120317
4.44626e-08
0.000120329
7.05084e-08
0.000120346
9.29146e-08
0.000120366
1.11423e-07
0.000120389
1.25965e-07
0.000120415
1.36629e-07
0.000120443
1.43618e-07
0.000120472
1.47208e-07
0.000120502
1.47708e-07
0.000120534
1.45438e-07
0.000120565
1.4071e-07
0.000120598
1.33821e-07
0.00012063
1.2504e-07
0.000120662
1.14612e-07
0.000120694
1.02755e-07
0.000120726
8.96612e-08
0.000120758
7.54975e-08
0.00012079
6.04076e-08
0.000120821
4.45151e-08
0.000120852
2.7926e-08
0.000120882
1.07308e-08
0.000120912
-6.9929e-09
0.000120941
-2.51776e-08
0.00012097
-4.3764e-08
0.000120999
-6.26981e-08
0.000121026
-8.19295e-08
0.000121054
-1.01409e-07
0.00012108
-1.21086e-07
0.000121106
-1.40911e-07
0.000121131
-1.60829e-07
0.000121156
-1.80786e-07
-2.00697e-07
0.000121179
0.000123746
1.27236e-08
0.000123753
3.68547e-08
0.000123766
5.83483e-08
0.000123782
7.67072e-08
0.000123801
9.17069e-08
0.000123824
1.03276e-07
0.000123849
1.11481e-07
0.000123876
1.16486e-07
0.000123905
1.18515e-07
0.000123935
1.17826e-07
0.000123966
1.14686e-07
0.000123997
1.09359e-07
0.000124029
1.02094e-07
0.000124061
9.31253e-08
0.000124093
8.26602e-08
0.000124125
7.08908e-08
0.000124156
5.79857e-08
0.000124188
4.40912e-08
0.000124219
2.93359e-08
0.000124249
1.38312e-08
0.00012428
-2.32535e-09
0.000124309
-1.90496e-08
0.000124339
-3.62678e-08
0.000124367
-5.39143e-08
0.000124396
-7.19302e-08
0.000124423
-9.02608e-08
0.00012445
-1.08854e-07
0.000124476
-1.2766e-07
0.000124502
-1.46628e-07
0.000124527
-1.65706e-07
0.000124551
-1.84841e-07
0.000124574
-2.03983e-07
-2.23051e-07
0.000124596
0.000127281
1.01818e-08
0.000127288
2.94682e-08
0.0001273
4.65359e-08
0.000127316
6.09426e-08
0.000127335
7.24942e-08
0.000127357
8.11183e-08
0.000127382
8.68684e-08
0.000127409
8.9877e-08
0.000127437
9.03245e-08
0.000127466
8.84192e-08
0.000127497
8.43832e-08
0.000127527
7.84333e-08
0.000127559
7.07766e-08
0.00012759
6.16114e-08
0.000127622
5.11064e-08
0.000127653
3.9431e-08
0.000127685
2.6729e-08
0.000127716
1.31272e-08
0.000127746
-1.26113e-09
0.000127776
-1.63382e-08
0.000127806
-3.20147e-08
0.000127835
-4.82139e-08
0.000127864
-6.48666e-08
0.000127892
-8.19103e-08
0.000127919
-9.92875e-08
0.000127946
-1.16945e-07
0.000127972
-1.3483e-07
0.000127997
-1.52893e-07
0.000128021
-1.71083e-07
0.000128045
-1.89352e-07
0.000128068
-2.07646e-07
0.00012809
-2.25919e-07
-2.44096e-07
0.000128111
0.000130917
7.71207e-09
0.000130925
2.2289e-08
0.000130936
3.50452e-08
0.000130951
4.55839e-08
0.00013097
5.37405e-08
0.000130992
5.94402e-08
0.000131016
6.2738e-08
0.000131042
6.37404e-08
0.00013107
6.25887e-08
0.000131099
5.94477e-08
0.000131129
5.4498e-08
0.000131159
4.79122e-08
0.00013119
3.9857e-08
0.000131221
3.0497e-08
0.000131252
1.99545e-08
0.000131283
8.39063e-09
0.000131314
-4.08432e-09
0.000131345
-1.73616e-08
0.000131375
-3.13452e-08
0.000131404
-4.59482e-08
0.000131433
-6.10927e-08
0.000131462
-7.6709e-08
0.00013149
-9.27336e-08
0.000131517
-1.09108e-07
0.000131544
-1.25778e-07
0.000131569
-1.42691e-07
0.000131594
-1.59798e-07
0.000131618
-1.7705e-07
0.000131642
-1.94397e-07
0.000131664
-2.11793e-07
0.000131686
-2.29188e-07
0.000131706
-2.46538e-07
-2.63773e-07
0.000131726
0.000134658
5.30531e-09
0.000134665
1.52935e-08
0.000134676
2.38339e-08
0.000134691
3.05709e-08
0.000134709
3.53794e-08
0.00013473
3.81725e-08
0.000134754
3.9024e-08
0.00013478
3.80158e-08
0.000134807
3.52554e-08
0.000134836
3.08695e-08
0.000134865
2.50025e-08
0.000134895
1.77759e-08
0.000134926
9.31935e-09
0.000134957
-2.01591e-10
0.000134987
-1.07853e-08
0.000135018
-2.22123e-08
0.000135048
-3.44303e-08
0.000135078
-4.73459e-08
0.000135108
-6.08796e-08
0.000135137
-7.49582e-08
0.000135165
-8.95147e-08
0.000135193
-1.04487e-07
0.00013522
-1.19819e-07
0.000135246
-1.35457e-07
0.000135272
-1.5135e-07
0.000135297
-1.6745e-07
0.000135321
-1.83708e-07
0.000135344
-2.00079e-07
0.000135366
-2.16518e-07
0.000135387
-2.32977e-07
0.000135407
-2.49413e-07
0.000135426
-2.65783e-07
-2.82023e-07
0.000135445
0.000138505
2.97276e-09
0.000138511
8.49789e-09
0.000138522
1.29173e-08
0.000138537
1.59106e-08
0.000138555
1.73867e-08
0.000138576
1.72491e-08
0.000138599
1.56503e-08
0.000138625
1.26215e-08
0.000138652
8.24319e-09
0.00013868
2.59297e-09
0.000138709
-4.18761e-09
0.000138739
-1.20375e-08
0.000138769
-2.08705e-08
0.000138799
-3.05886e-08
0.00013883
-4.11309e-08
0.00013886
-5.23926e-08
0.00013889
-6.43107e-08
0.000138919
-7.68175e-08
0.000138948
-8.98488e-08
0.000138977
-1.03345e-07
0.000139004
-1.17251e-07
0.000139031
-1.31514e-07
0.000139058
-1.46085e-07
0.000139083
-1.60915e-07
0.000139108
-1.7596e-07
0.000139132
-1.91174e-07
0.000139154
-2.06513e-07
0.000139176
-2.21935e-07
0.000139197
-2.37397e-07
0.000139217
-2.52857e-07
0.000139236
-2.68272e-07
0.000139254
-2.83606e-07
-2.98797e-07
0.00013927
0.000142462
6.60927e-10
0.000142468
1.80967e-09
0.000142479
2.15676e-09
0.000142493
1.44687e-09
0.000142511
-2.85452e-10
0.000142532
-3.39883e-09
0.000142555
-7.44518e-09
0.00014258
-1.25022e-08
0.000142607
-1.84946e-08
0.000142635
-2.53707e-08
0.000142664
-3.30674e-08
0.000142693
-4.15394e-08
0.000142723
-5.07355e-08
0.000142753
-6.0598e-08
0.000142783
-7.10852e-08
0.000142813
-8.21404e-08
0.000142842
-9.37145e-08
0.000142871
-1.05761e-07
0.000142899
-1.18233e-07
0.000142927
-1.31087e-07
0.000142954
-1.44278e-07
0.00014298
-1.57764e-07
0.000143006
-1.71503e-07
0.00014303
-1.85454e-07
0.000143054
-1.99577e-07
0.000143077
-2.13833e-07
0.000143098
-2.28182e-07
0.000143119
-2.42584e-07
0.000143139
-2.57002e-07
0.000143157
-2.71395e-07
0.000143175
-2.85727e-07
0.000143191
-2.99962e-07
-3.14045e-07
0.000143206
0.000146531
-1.45448e-09
0.000146538
-4.50324e-09
0.000146548
-8.14343e-09
0.000146562
-1.2623e-08
0.00014658
-1.78808e-08
0.0001466
-2.38866e-08
0.000146623
-3.04569e-08
0.000146648
-3.75691e-08
0.000146675
-4.51898e-08
0.000146703
-5.32995e-08
0.000146732
-6.18819e-08
0.000146761
-7.09294e-08
0.000146791
-8.04339e-08
0.000146821
-9.03808e-08
0.00014685
-1.00756e-07
0.00014688
-1.11535e-07
0.000146909
-1.22695e-07
0.000146937
-1.3421e-07
0.000146965
-1.4605e-07
0.000146992
-1.58185e-07
0.000147018
-1.70585e-07
0.000147044
-1.83216e-07
0.000147068
-1.96046e-07
0.000147092
-2.0904e-07
0.000147114
-2.22166e-07
0.000147136
-2.35388e-07
0.000147157
-2.48673e-07
0.000147176
-2.61984e-07
0.000147194
-2.75288e-07
0.000147211
-2.8855e-07
0.000147227
-3.01736e-07
0.000147242
-3.14815e-07
-3.27737e-07
0.000147256
0.000150718
-3.87067e-09
0.000150725
-1.10387e-08
0.000150735
-1.8563e-08
0.000150749
-2.66705e-08
0.000150766
-3.52289e-08
0.000150787
-4.41235e-08
0.000150809
-5.31958e-08
0.000150834
-6.23713e-08
0.000150861
-7.16295e-08
0.000150888
-8.09795e-08
0.000150917
-9.04461e-08
0.000150946
-1.00063e-07
0.000150975
-1.0986e-07
0.000151005
-1.19864e-07
0.000151034
-1.30091e-07
0.000151063
-1.4055e-07
0.000151092
-1.51243e-07
0.00015112
-1.62166e-07
0.000151147
-1.73309e-07
0.000151174
-1.84657e-07
0.000151199
-1.96192e-07
0.000151224
-2.07893e-07
0.000151248
-2.19736e-07
0.00015127
-2.31697e-07
0.000151292
-2.43747e-07
0.000151312
-2.55858e-07
0.000151332
-2.68002e-07
0.00015135
-2.80148e-07
0.000151367
-2.92266e-07
0.000151382
-3.04325e-07
0.000151397
-3.16297e-07
0.00015141
-3.28151e-07
-3.39845e-07
0.000151422
0.000155023
-5.13992e-09
0.000155028
-1.62403e-08
0.000155038
-2.79687e-08
0.000155051
-4.03139e-08
0.000155069
-5.27505e-08
0.000155089
-6.49355e-08
0.000155113
-7.66848e-08
0.000155139
-8.79556e-08
0.000155166
-9.87912e-08
0.000155194
-1.0927e-07
0.000155223
-1.19483e-07
0.000155252
-1.29521e-07
0.000155282
-1.39464e-07
0.000155312
-1.49383e-07
0.000155341
-1.59329e-07
0.00015537
-1.69344e-07
0.000155398
-1.79453e-07
0.000155425
-1.89675e-07
0.000155452
-2.00016e-07
0.000155478
-2.10478e-07
0.000155503
-2.21055e-07
0.000155527
-2.31735e-07
0.000155549
-2.42505e-07
0.000155571
-2.53347e-07
0.000155592
-2.6424e-07
0.000155611
-2.75162e-07
0.000155629
-2.86089e-07
0.000155646
-2.96996e-07
0.000155661
-3.07859e-07
0.000155676
-3.18651e-07
0.000155689
-3.29346e-07
0.0001557
-3.39922e-07
-3.50337e-07
0.000155711
0.000159454
-8.92323e-09
0.000159461
-2.32101e-08
0.000159471
-3.80849e-08
0.000159485
-5.36104e-08
0.000159501
-6.93062e-08
0.000159521
-8.45946e-08
0.000159543
-9.90874e-08
0.000159568
-1.12633e-07
0.000159595
-1.2525e-07
0.000159622
-1.37043e-07
0.000159651
-1.48149e-07
0.00015968
-1.58711e-07
0.00015971
-1.68865e-07
0.000159739
-1.78726e-07
0.000159768
-1.8839e-07
0.000159797
-1.97933e-07
0.000159825
-2.07414e-07
0.000159852
-2.16874e-07
0.000159878
-2.26343e-07
0.000159903
-2.3584e-07
0.000159928
-2.45373e-07
0.000159951
-2.54945e-07
0.000159973
-2.64552e-07
0.000159994
-2.74184e-07
0.000160013
-2.8383e-07
0.000160032
-2.93473e-07
0.000160049
-3.03097e-07
0.000160064
-3.12682e-07
0.000160079
-3.22207e-07
0.000160092
-3.3165e-07
0.000160103
-3.40991e-07
0.000160114
-3.50209e-07
-3.59268e-07
0.000160123
0.000164003
-6.26404e-09
0.000164005
-2.48845e-08
0.000164013
-4.59938e-08
0.000164027
-6.78229e-08
0.000164047
-8.86566e-08
0.00016407
-1.07749e-07
0.000164096
-1.24952e-07
0.000164123
-1.4038e-07
0.000164152
-1.54249e-07
0.000164182
-1.66804e-07
0.000164212
-1.78286e-07
0.000164242
-1.88916e-07
0.000164272
-1.98889e-07
0.000164302
-2.08364e-07
0.000164331
-2.17473e-07
0.00016436
-2.26319e-07
0.000164387
-2.34982e-07
0.000164414
-2.43522e-07
0.000164439
-2.51983e-07
0.000164464
-2.60397e-07
0.000164487
-2.68783e-07
0.00016451
-2.77152e-07
0.000164531
-2.85509e-07
0.00016455
-2.93853e-07
0.000164569
-3.02177e-07
0.000164586
-3.10472e-07
0.000164601
-3.18725e-07
0.000164615
-3.26924e-07
0.000164628
-3.35051e-07
0.00016464
-3.43091e-07
0.00016465
-3.51026e-07
0.000164658
-3.58841e-07
-3.66503e-07
0.000164666
0.000168701
-1.565e-08
0.000168709
-3.28386e-08
0.000168717
-5.35191e-08
0.000168726
-7.71955e-08
0.000168739
-1.01909e-07
0.000168757
-1.2541e-07
0.000168779
-1.46539e-07
0.000168803
-1.65088e-07
0.00016883
-1.8128e-07
0.000168859
-1.95448e-07
0.000168889
-2.0794e-07
0.000168919
-2.19083e-07
0.000168949
-2.29163e-07
0.000168979
-2.38419e-07
0.000169009
-2.47045e-07
0.000169038
-2.55198e-07
0.000169066
-2.62997e-07
0.000169093
-2.70538e-07
0.000169118
-2.77889e-07
0.000169143
-2.85102e-07
0.000169167
-2.92216e-07
0.000169189
-2.99254e-07
0.000169209
-3.06232e-07
0.000169229
-3.13159e-07
0.000169247
-3.20036e-07
0.000169263
-3.26862e-07
0.000169278
-3.33631e-07
0.000169291
-3.40333e-07
0.000169303
-3.46959e-07
0.000169314
-3.53495e-07
0.000169322
-3.59928e-07
0.00016933
-3.66246e-07
-3.72425e-07
0.000169336
0.000173491
4.38268e-09
0.000173485
-2.64006e-08
0.000173494
-6.27411e-08
0.000173515
-9.8074e-08
0.000173542
-1.29212e-07
0.000173573
-1.55741e-07
0.000173604
-1.78274e-07
0.000173637
-1.97393e-07
0.000173669
-2.13669e-07
0.000173701
-2.27606e-07
0.000173733
-2.39654e-07
0.000173764
-2.50202e-07
0.000173794
-2.59569e-07
0.000173824
-2.6801e-07
0.000173853
-2.75731e-07
0.00017388
-2.82897e-07
0.000173907
-2.89634e-07
0.000173933
-2.96043e-07
0.000173957
-3.022e-07
0.00017398
-3.08162e-07
0.000174002
-3.13974e-07
0.000174022
-3.19666e-07
0.000174041
-3.25259e-07
0.000174059
-3.30767e-07
0.000174075
-3.36198e-07
0.00017409
-3.41555e-07
0.000174103
-3.46838e-07
0.000174114
-3.52042e-07
0.000174125
-3.57161e-07
0.000174133
-3.62188e-07
0.000174141
-3.67113e-07
0.000174146
-3.71927e-07
-3.76609e-07
0.00017415
0.000178498
-2.47457e-08
0.0001785
-2.8338e-08
0.000178488
-5.13107e-08
0.000178479
-8.92069e-08
0.000178481
-1.31169e-07
0.000178494
-1.68574e-07
0.000178515
-1.99213e-07
0.000178541
-2.23815e-07
0.000178571
-2.43696e-07
0.000178604
-2.59842e-07
0.000178637
-2.73054e-07
0.000178671
-2.83996e-07
0.000178705
-2.93197e-07
0.000178738
-3.01066e-07
0.00017877
-3.0792e-07
0.000178801
-3.14002e-07
0.000178831
-3.19497e-07
0.000178859
-3.24548e-07
0.000178886
-3.29261e-07
0.000178912
-3.33714e-07
0.000178936
-3.37969e-07
0.000178958
-3.42067e-07
0.000178979
-3.4604e-07
0.000178998
-3.49909e-07
0.000179016
-3.53689e-07
0.000179032
-3.57387e-07
0.000179046
-3.61009e-07
0.000179058
-3.64554e-07
0.000179069
-3.6802e-07
0.000179078
-3.71404e-07
0.000179086
-3.74701e-07
0.000179092
-3.77906e-07
-3.81004e-07
0.000179096
0.000183487
5.60132e-08
0.000183465
-6.35247e-09
0.000183501
-8.71763e-08
0.000183551
-1.40179e-07
0.000183602
-1.8137e-07
0.000183647
-2.13506e-07
0.000183687
-2.39291e-07
0.000183723
-2.60525e-07
0.000183758
-2.77926e-07
0.00018379
-2.92199e-07
0.000183821
-3.04007e-07
0.000183851
-3.13864e-07
0.00018388
-3.22166e-07
0.000183908
-3.2923e-07
0.000183935
-3.35307e-07
0.000183962
-3.40598e-07
0.000183988
-3.45258e-07
0.000184013
-3.49412e-07
0.000184036
-3.53157e-07
0.000184059
-3.56568e-07
0.000184081
-3.59706e-07
0.000184102
-3.62617e-07
0.000184121
-3.65338e-07
0.000184139
-3.67894e-07
0.000184156
-3.70308e-07
0.000184171
-3.72594e-07
0.000184184
-3.74764e-07
0.000184197
-3.76823e-07
0.000184207
-3.78778e-07
0.000184217
-3.80628e-07
0.000184224
-3.82373e-07
0.00018423
-3.8401e-07
-3.85532e-07
0.000184235
0.000188861
7.32598e-09
0.000188795
5.91327e-08
0.000188709
-9.07562e-10
0.000188645
-7.59938e-08
0.000188626
-1.62622e-07
0.000188639
-2.26318e-07
0.00018867
-2.70536e-07
0.000188712
-3.02106e-07
0.000188759
-3.25256e-07
0.000188809
-3.42565e-07
0.000188861
-3.55666e-07
0.000188913
-3.65681e-07
0.000188964
-3.73408e-07
0.000189014
-3.79415e-07
0.000189063
-3.84116e-07
0.00018911
-3.87812e-07
0.000189156