/*--------------------------------*- C++ -*----------------------------------*\
| =========                 |                                                 |
| \\      /  F ield         | OpenFOAM: The Open Source CFD Toolbox           |
|  \\    /   O peration     | Version:  2.1.1                                 |
|   \\  /    A nd           | Web:      www.OpenFOAM.org                      |
|    \\/     M anipulation  |                                                 |
\*---------------------------------------------------------------------------*/
FoamFile
{
    version     2.0;
    format      ascii;
    class       volVectorField;
    location    "0.125";
    object      U;
}
// * * * * * * * * * * * * * * * * * * * * * * * * * * * * * * * * * * * * * //

dimensions      [0 1 -1 0 0 0 0];

internalField   nonuniform List<vector> 
6820
(
(8.34337 -0.360078 0)
(8.40112 -0.247162 0)
(8.35615 -0.115304 0)
(8.24792 -0.0365733 0)
(8.11956 0.00598513 0)
(7.98623 0.0278385 0)
(7.85426 0.0385994 0)
(7.72701 0.0432905 0)
(7.60591 0.0445532 0)
(7.49151 0.0438442 0)
(7.38404 0.042005 0)
(7.28352 0.0395399 0)
(7.18984 0.0367599 0)
(7.10279 0.0338605 0)
(7.02209 0.0309653 0)
(6.94741 0.0281515 0)
(6.87842 0.0254663 0)
(6.81476 0.0229365 0)
(6.75607 0.0205753 0)
(6.70199 0.018387 0)
(6.65218 0.0163702 0)
(6.60631 0.0145202 0)
(6.56408 0.0128311 0)
(6.52516 0.0112975 0)
(6.48928 0.00991716 0)
(6.45613 0.00869435 0)
(6.42539 0.00764512 0)
(6.39668 0.00681966 0)
(6.36951 0.00631497 0)
(6.34301 0.00640299 0)
(6.31562 0.00790445 0)
(6.28445 0.0115032 0)
(6.23997 0.0293891 0)
(8.32139 0.166247 0)
(8.28709 0.189992 0)
(8.28545 0.132139 0)
(8.31742 0.0958229 0)
(8.36174 0.0749754 0)
(8.40182 0.0623026 0)
(8.43295 0.0548076 0)
(8.45508 0.0502705 0)
(8.46908 0.0473502 0)
(8.47595 0.0453331 0)
(8.47673 0.0438243 0)
(8.47237 0.0425859 0)
(8.4637 0.0414787 0)
(8.45143 0.0404256 0)
(8.43622 0.0393857 0)
(8.41862 0.0383401 0)
(8.39911 0.0372822 0)
(8.37812 0.0362127 0)
(8.35599 0.0351357 0)
(8.33304 0.0340573 0)
(8.30952 0.0329844 0)
(8.28565 0.0319243 0)
(8.26162 0.0308853 0)
(8.23757 0.0298775 0)
(8.21364 0.0289154 0)
(8.18993 0.0280206 0)
(8.16653 0.0272319 0)
(8.14349 0.0266191 0)
(8.12105 0.0263114 0)
(8.09898 0.0266347 0)
(8.07947 0.0279814 0)
(8.05992 0.0323799 0)
(8.06151 0.0397846 0)
(8.3225 -0.0608889 0)
(8.31398 -0.0832937 0)
(8.33053 -0.0541163 0)
(8.34438 -0.0203288 0)
(8.35329 0.00236866 0)
(8.36235 0.0164807 0)
(8.37213 0.0257042 0)
(8.38222 0.0319043 0)
(8.39213 0.0361044 0)
(8.40148 0.0389496 0)
(8.41002 0.0408344 0)
(8.41763 0.0420026 0)
(8.42423 0.0426275 0)
(8.42983 0.0428403 0)
(8.43443 0.0427397 0)
(8.43809 0.0424019 0)
(8.44085 0.0418855 0)
(8.44277 0.0412368 0)
(8.44394 0.0404919 0)
(8.44441 0.0396796 0)
(8.44425 0.0388228 0)
(8.44353 0.0379406 0)
(8.44231 0.0370498 0)
(8.44065 0.0361663 0)
(8.43861 0.0353087 0)
(8.43622 0.0344988 0)
(8.43356 0.0337755 0)
(8.43065 0.0331769 0)
(8.42763 0.0328381 0)
(8.42451 0.0327159 0)
(8.42184 0.0334815 0)
(8.41952 0.0332607 0)
(8.41886 0.0360553 0)
(8.33365 0.0145583 0)
(8.32978 0.0476814 0)
(8.3274 0.0539374 0)
(8.32876 0.0465148 0)
(8.33468 0.0410017 0)
(8.34226 0.0384806 0)
(8.34981 0.037651 0)
(8.3571 0.0375848 0)
(8.36416 0.0377803 0)
(8.37096 0.038017 0)
(8.37748 0.0381959 0)
(8.38369 0.0382756 0)
(8.38959 0.0382461 0)
(8.39514 0.0381102 0)
(8.40035 0.037876 0)
(8.40521 0.0375538 0)
(8.40974 0.0371555 0)
(8.41394 0.0366927 0)
(8.41783 0.0361768 0)
(8.42142 0.0356184 0)
(8.42475 0.0350275 0)
(8.42783 0.034414 0)
(8.43067 0.0337881 0)
(8.43331 0.0331613 0)
(8.43577 0.0325486 0)
(8.43807 0.0319692 0)
(8.44024 0.0314542 0)
(8.44232 0.0310398 0)
(8.44442 0.0307997 0)
(8.44659 0.0307626 0)
(8.44927 0.0310861 0)
(8.4525 0.0314605 0)
(8.4577 0.0323082 0)
(8.3302 -0.00531651 0)
(8.32722 -0.00752572 0)
(8.3314 -0.00248942 0)
(8.33611 0.00797905 0)
(8.34021 0.0171351 0)
(8.34443 0.0233315 0)
(8.34889 0.0274923 0)
(8.35361 0.0304291 0)
(8.3585 0.0325431 0)
(8.36345 0.0340661 0)
(8.36838 0.0351431 0)
(8.37323 0.0358681 0)
(8.37798 0.0363073 0)
(8.38259 0.0365115 0)
(8.38706 0.0365227 0)
(8.39138 0.0363759 0)
(8.39554 0.0361005 0)
(8.39955 0.0357214 0)
(8.40341 0.0352594 0)
(8.40714 0.0347321 0)
(8.41073 0.0341547 0)
(8.41421 0.0335406 0)
(8.41757 0.0329025 0)
(8.42085 0.032253 0)
(8.42404 0.0316068 0)
(8.42717 0.0309803 0)
(8.43027 0.0303973 0)
(8.43338 0.0298777 0)
(8.43657 0.0294653 0)
(8.43993 0.0291304 0)
(8.44369 0.0289508 0)
(8.44792 0.028468 0)
(8.45299 0.0278906 0)
(8.33239 0.00227745 0)
(8.33119 0.013287 0)
(8.33282 0.0203585 0)
(8.33555 0.0237287 0)
(8.33903 0.0258584 0)
(8.34312 0.0276403 0)
(8.3474 0.0292883 0)
(8.3517 0.0307509 0)
(8.35602 0.0319469 0)
(8.36032 0.0328649 0)
(8.36458 0.0335266 0)
(8.36878 0.0339595 0)
(8.37292 0.0341918 0)
(8.37698 0.0342518 0)
(8.38095 0.0341657 0)
(8.38483 0.0339567 0)
(8.38862 0.0336451 0)
(8.39232 0.0332483 0)
(8.39594 0.0327815 0)
(8.39947 0.0322578 0)
(8.40294 0.0316885 0)
(8.40634 0.0310842 0)
(8.40968 0.0304545 0)
(8.41299 0.0298094 0)
(8.41626 0.0291599 0)
(8.41952 0.0285174 0)
(8.4228 0.0278963 0)
(8.42613 0.0273058 0)
(8.42958 0.0267596 0)
(8.43321 0.0262233 0)
(8.43716 0.0256814 0)
(8.4415 0.0248758 0)
(8.44633 0.023776 0)
(8.33233 0.000863541 0)
(8.33153 0.00575601 0)
(8.33343 0.0107131 0)
(8.3365 0.0154911 0)
(8.33993 0.0198524 0)
(8.34362 0.0233355 0)
(8.34741 0.0259867 0)
(8.35124 0.0280008 0)
(8.3551 0.0295143 0)
(8.35897 0.030629 0)
(8.36281 0.0314216 0)
(8.36662 0.0319475 0)
(8.37038 0.0322495 0)
(8.37408 0.032363 0)
(8.37771 0.0323178 0)
(8.38129 0.0321392 0)
(8.38479 0.0318486 0)
(8.38824 0.0314645 0)
(8.39163 0.0310027 0)
(8.39497 0.0304764 0)
(8.39826 0.0298973 0)
(8.40152 0.0292754 0)
(8.40475 0.0286201 0)
(8.40796 0.0279399 0)
(8.41117 0.0272432 0)
(8.41439 0.0265376 0)
(8.41765 0.02583 0)
(8.42099 0.0251206 0)
(8.42444 0.0244056 0)
(8.42807 0.0236445 0)
(8.43194 0.0227937 0)
(8.43609 0.0216744 0)
(8.4405 0.0202049 0)
(8.33272 0.00170075 0)
(8.33256 0.00726031 0)
(8.33419 0.012532 0)
(8.3368 0.0167716 0)
(8.33986 0.0201939 0)
(8.34328 0.0228869 0)
(8.34688 0.0250135 0)
(8.35053 0.0267068 0)
(8.35421 0.0280261 0)
(8.35788 0.0290172 0)
(8.36152 0.0297258 0)
(8.36511 0.0301915 0)
(8.36865 0.0304484 0)
(8.37214 0.030527 0)
(8.37557 0.0304537 0)
(8.37895 0.0302512 0)
(8.38227 0.0299394 0)
(8.38554 0.029535 0)
(8.38877 0.0290523 0)
(8.39195 0.0285035 0)
(8.39511 0.027899 0)
(8.39824 0.0272476 0)
(8.40135 0.0265569 0)
(8.40447 0.0258336 0)
(8.40759 0.0250832 0)
(8.41074 0.0243093 0)
(8.41393 0.023513 0)
(8.4172 0.0226881 0)
(8.42058 0.0218211 0)
(8.42411 0.0208726 0)
(8.42782 0.0197924 0)
(8.43171 0.0184635 0)
(8.43574 0.0168138 0)
(8.33284 0.00177777 0)
(8.33294 0.00642758 0)
(8.33445 0.010918 0)
(8.33688 0.0147822 0)
(8.33977 0.0181202 0)
(8.343 0.0208831 0)
(8.3464 0.0230972 0)
(8.34987 0.0248454 0)
(8.35338 0.0261929 0)
(8.35688 0.0271974 0)
(8.36036 0.0279117 0)
(8.36381 0.0283796 0)
(8.36721 0.028637 0)
(8.37056 0.0287146 0)
(8.37385 0.0286387 0)
(8.3771 0.0284316 0)
(8.38029 0.0281123 0)
(8.38344 0.0276971 0)
(8.38656 0.0271997 0)
(8.38963 0.0266316 0)
(8.39268 0.0260023 0)
(8.39572 0.0253198 0)
(8.39874 0.0245907 0)
(8.40176 0.0238198 0)
(8.4048 0.0230104 0)
(8.40787 0.0221632 0)
(8.41099 0.0212754 0)
(8.41417 0.020337 0)
(8.41745 0.0193304 0)
(8.42084 0.0182205 0)
(8.42436 0.0169617 0)
(8.428 0.0154764 0)
(8.4317 0.0137116 0)
(8.33294 0.00181832 0)
(8.33323 0.00610132 0)
(8.33465 0.0102855 0)
(8.33687 0.0139222 0)
(8.33955 0.0170272 0)
(8.34255 0.0195889 0)
(8.34576 0.0216473 0)
(8.34907 0.0232812 0)
(8.35244 0.0245503 0)
(8.35581 0.0255022 0)
(8.35917 0.0261804 0)
(8.36251 0.0266225 0)
(8.3658 0.0268606 0)
(8.36905 0.0269224 0)
(8.37225 0.0268323 0)
(8.3754 0.0266112 0)
(8.37851 0.0262768 0)
(8.38157 0.0258444 0)
(8.3846 0.0253268 0)
(8.3876 0.0247345 0)
(8.39057 0.0240762 0)
(8.39353 0.0233591 0)
(8.39648 0.0225882 0)
(8.39943 0.0217672 0)
(8.4024 0.0208973 0)
(8.40539 0.0199771 0)
(8.40843 0.0190013 0)
(8.41152 0.0179586 0)
(8.41468 0.0168307 0)
(8.41793 0.015588 0)
(8.42127 0.0141937 0)
(8.42467 0.0125969 0)
(8.42809 0.010764 0)
(8.33299 0.00178039 0)
(8.33339 0.0056708 0)
(8.33471 0.00945154 0)
(8.33676 0.0127864 0)
(8.33925 0.0156659 0)
(8.34207 0.0180819 0)
(8.3451 0.020051 0)
(8.34825 0.0216249 0)
(8.35147 0.0228512 0)
(8.35471 0.0237717 0)
(8.35796 0.024426 0)
(8.36118 0.0248495 0)
(8.36438 0.0250726 0)
(8.36754 0.0251217 0)
(8.37066 0.0250196 0)
(8.37373 0.0247861 0)
(8.37677 0.0244379 0)
(8.37976 0.0239893 0)
(8.38272 0.0234522 0)
(8.38566 0.0228363 0)
(8.38857 0.0221496 0)
(8.39146 0.0213981 0)
(8.39435 0.0205861 0)
(8.39724 0.0197158 0)
(8.40014 0.0187873 0)
(8.40306 0.0177978 0)
(8.40601 0.0167408 0)
(8.40901 0.0156051 0)
(8.41206 0.0143739 0)
(8.41517 0.0130234 0)
(8.41833 0.0115257 0)
(8.42152 0.00984773 0)
(8.42471 0.00797036 0)
(8.33302 0.00170131 0)
(8.33347 0.00526325 0)
(8.33471 0.00871215 0)
(8.3366 0.0117913 0)
(8.33892 0.0144644 0)
(8.34156 0.016721 0)
(8.34442 0.0185709 0)
(8.34741 0.0200541 0)
(8.35048 0.0212119 0)
(8.3536 0.0220813 0)
(8.35673 0.0226975 0)
(8.35985 0.0230918 0)
(8.36295 0.0232919 0)
(8.36602 0.0233219 0)
(8.36906 0.0232028 0)
(8.37206 0.0229529 0)
(8.37503 0.0225876 0)
(8.37796 0.0221202 0)
(8.38086 0.0215616 0)
(8.38373 0.0209207 0)
(8.38658 0.0202046 0)
(8.38942 0.0194183 0)
(8.39224 0.0185654 0)
(8.39507 0.0176472 0)
(8.3979 0.0166628 0)
(8.40075 0.0156088 0)
(8.40362 0.0144785 0)
(8.40653 0.0132616 0)
(8.40946 0.0119439 0)
(8.41243 0.0105069 0)
(8.41543 0.00893051 0)
(8.41843 0.00719375 0)
(8.42142 0.00528726 0)
(8.33303 0.00159813 0)
(8.3335 0.00485617 0)
(8.33467 0.00799166 0)
(8.33642 0.0108136 0)
(8.33858 0.0132771 0)
(8.34105 0.0153711 0)
(8.34375 0.0171002 0)
(8.34659 0.0184927 0)
(8.34952 0.0195818 0)
(8.35251 0.0203989 0)
(8.35552 0.0209745 0)
(8.35853 0.0213368 0)
(8.36154 0.0215109 0)
(8.36452 0.0215189 0)
(8.36748 0.0213801 0)
(8.3704 0.0211115 0)
(8.37329 0.0207273 0)
(8.37616 0.0202395 0)
(8.37899 0.0196584 0)
(8.3818 0.0189918 0)
(8.38459 0.0182461 0)
(8.38737 0.0174258 0)
(8.39013 0.0165334 0)
(8.39289 0.0155697 0)
(8.39566 0.0145334 0)
(8.39843 0.0134208 0)
(8.40121 0.0122259 0)
(8.40401 0.0109396 0)
(8.40684 0.00955043 0)
(8.40967 0.00804479 0)
(8.41251 0.0064087 0)
(8.41535 0.00462919 0)
(8.41815 0.00270314 0)
(8.33304 0.00148246 0)
(8.33351 0.00445723 0)
(8.33461 0.00730512 0)
(8.33624 0.00988391 0)
(8.33825 0.0121461 0)
(8.34057 0.0140783 0)
(8.34311 0.0156814 0)
(8.3458 0.0169754 0)
(8.34859 0.0179872 0)
(8.35145 0.0187437 0)
(8.35434 0.0192714 0)
(8.35725 0.0195953 0)
(8.36015 0.0197379 0)
(8.36304 0.0197192 0)
(8.36592 0.0195569 0)
(8.36876 0.0192662 0)
(8.37158 0.0188604 0)
(8.37437 0.0183503 0)
(8.37714 0.0177451 0)
(8.37988 0.017052 0)
(8.38261 0.0162766 0)
(8.38532 0.0154227 0)
(8.38801 0.0144924 0)
(8.3907 0.013486 0)
(8.39339 0.0124021 0)
(8.39608 0.0112372 0)
(8.39877 0.00998604 0)
(8.40147 0.00864119 0)
(8.40417 0.00719383 0)
(8.40688 0.00563417 0)
(8.40957 0.00395298 0)
(8.41225 0.00214261 0)
(8.41489 0.000203697 0)
(8.33304 0.00136134 0)
(8.3335 0.0040673 0)
(8.33453 0.00664598 0)
(8.33605 0.00899018 0)
(8.33793 0.0110545 0)
(8.3401 0.0128241 0)
(8.3425 0.0142974 0)
(8.34505 0.0154884 0)
(8.34771 0.0164182 0)
(8.35044 0.0171094 0)
(8.35322 0.0175848 0)
(8.35602 0.017866 0)
(8.35882 0.0179732 0)
(8.36162 0.0179244 0)
(8.3644 0.0177354 0)
(8.36716 0.0174201 0)
(8.3699 0.0169905 0)
(8.37262 0.0164565 0)
(8.37531 0.0158262 0)
(8.37799 0.0151063 0)
(8.38064 0.0143016 0)
(8.38328 0.0134153 0)
(8.3859 0.0124493 0)
(8.38851 0.0114036 0)
(8.39111 0.0102768 0)
(8.39371 0.009066 0)
(8.39631 0.00776676 0)
(8.3989 0.00637336 0)
(8.40149 0.00487926 0)
(8.40406 0.00327775 0)
(8.40662 0.00156303 0)
(8.40914 -0.000269069 0)
(8.41163 -0.00221576 0)
(8.33304 0.00123894 0)
(8.33348 0.00368787 0)
(8.33445 0.00601309 0)
(8.33587 0.0081321 0)
(8.33762 0.0100036 0)
(8.33966 0.0116117 0)
(8.34192 0.0129532 0)
(8.34434 0.0140372 0)
(8.34687 0.0148803 0)
(8.34948 0.0155012 0)
(8.35215 0.0159192 0)
(8.35484 0.0161533 0)
(8.35754 0.016221 0)
(8.36024 0.0161383 0)
(8.36293 0.0159196 0)
(8.36561 0.0155772 0)
(8.36827 0.0151219 0)
(8.37091 0.0145626 0)
(8.37353 0.0139066 0)
(8.37612 0.0131598 0)
(8.3787 0.0123265 0)
(8.38126 0.0114095 0)
(8.3838 0.0104102 0)
(8.38633 0.00932885 0)
(8.38885 0.0081642 0)
(8.39135 0.00691386 0)
(8.39384 0.00557437 0)
(8.39632 0.00414151 0)
(8.39879 0.00261067 0)
(8.40124 0.000977493 0)
(8.40365 -0.000761354 0)
(8.40604 -0.0026078 0)
(8.40838 -0.00455791 0)
(8.33304 0.00111768 0)
(8.33346 0.00331965 0)
(8.33437 0.00540431 0)
(8.33569 0.00730644 0)
(8.33734 0.00898948 0)
(8.33926 0.0104373 0)
(8.34139 0.0116451 0)
(8.34368 0.0126191 0)
(8.34609 0.0133717 0)
(8.34858 0.0139181 0)
(8.35113 0.0142748 0)
(8.35372 0.0144578 0)
(8.35632 0.0144825 0)
(8.35893 0.0143631 0)
(8.36153 0.0141121 0)
(8.36412 0.0137405 0)
(8.3667 0.013258 0)
(8.36925 0.0126726 0)
(8.37179 0.0119906 0)
(8.37431 0.0112174 0)
(8.3768 0.0103567 0)
(8.37928 0.00941094 0)
(8.38174 0.00838152 0)
(8.38418 0.00726857 0)
(8.3866 0.00607121 0)
(8.389 0.00478764 0)
(8.39139 0.00341534 0)
(8.39376 0.00195135 0)
(8.3961 0.000392644 0)
(8.39842 -0.0012634 0)
(8.40071 -0.00301838 0)
(8.40295 -0.00487281 0)
(8.40515 -0.0068222 0)
(8.33304 0.000998893 0)
(8.33343 0.00296294 0)
(8.33429 0.00481796 0)
(8.33553 0.00651092 0)
(8.33707 0.00800988 0)
(8.33888 0.00929892 0)
(8.34089 0.0103725 0)
(8.34306 0.011234 0)
(8.34536 0.0118929 0)
(8.34774 0.0123614 0)
(8.35018 0.0126531 0)
(8.35266 0.0127816 0)
(8.35516 0.0127603 0)
(8.35767 0.0126014 0)
(8.36018 0.0123159 0)
(8.36269 0.0119136 0)
(8.36518 0.0114028 0)
(8.36765 0.0107907 0)
(8.3701 0.010083 0)
(8.37254 0.00928416 0)
(8.37495 0.00839765 0)
(8.37734 0.00742566 0)
(8.37971 0.0063694 0)
(8.38206 0.00522915 0)
(8.38438 0.00400436 0)
(8.38668 0.00269379 0)
(8.38896 0.00129575 0)
(8.39122 -0.000191665 0)
(8.39344 -0.00177026 0)
(8.39563 -0.00344136 0)
(8.39779 -0.00520541 0)
(8.39989 -0.00706201 0)
(8.40196 -0.00900649 0)
(8.33304 0.00088323 0)
(8.33341 0.00261768 0)
(8.33421 0.00425242 0)
(8.33538 0.0057432 0)
(8.33683 0.00706225 0)
(8.33853 0.0081943 0)
(8.34043 0.00913322 0)
(8.34249 0.00988055 0)
(8.34467 0.0104431 0)
(8.34695 0.0108307 0)
(8.34928 0.0110543 0)
(8.35166 0.0111255 0)
(8.35407 0.0110555 0)
(8.35648 0.0108549 0)
(8.3589 0.0105332 0)
(8.36132 0.0100988 0)
(8.36372 0.00955905 0)
(8.36611 0.00892018 0)
(8.36848 0.00818722 0)
(8.37083 0.00736414 0)
(8.37315 0.00645387 0)
(8.37545 0.00545845 0)
(8.37773 0.00437903 0)
(8.37998 0.00321599 0)
(8.38221 0.00196911 0)
(8.3844 0.000637669 0)
(8.38657 -0.000779325 0)
(8.38871 -0.00228294 0)
(8.39081 -0.00387404 0)
(8.39288 -0.00555304 0)
(8.3949 -0.0073196 0)
(8.39688 -0.00917278 0)
(8.39881 -0.0111079 0)
(8.33303 0.000770951 0)
(8.33339 0.00228354 0)
(8.33414 0.00370617 0)
(8.33523 0.00500114 0)
(8.3366 0.0061443 0)
(8.33821 0.00712131 0)
(8.34001 0.00792573 0)
(8.34196 0.00855772 0)
(8.34404 0.0090221 0)
(8.34621 0.0093264 0)
(8.34844 0.00947956 0)
(8.35072 0.00949109 0)
(8.35303 0.00937038 0)
(8.35536 0.00912633 0)
(8.35769 0.00876706 0)
(8.36001 0.00829983 0)
(8.36233 0.00773095 0)
(8.36463 0.00706575 0)
(8.36691 0.00630858 0)
(8.36917 0.00546289 0)
(8.37141 0.00453129 0)
(8.37362 0.00351558 0)
(8.3758 0.00241688 0)
(8.37795 0.00123571 0)
(8.38008 -2.78931e-05 0)
(8.38217 -0.00137419 0)
(8.38423 -0.00280363 0)
(8.38625 -0.00431661 0)
(8.38823 -0.00591332 0)
(8.39017 -0.00759352 0)
(8.39207 -0.00935636 0)
(8.39391 -0.0112006 0)
(8.39571 -0.0131216 0)
(8.33303 0.000662083 0)
(8.33336 0.00196004 0)
(8.33408 0.00317777 0)
(8.3351 0.00428265 0)
(8.33639 0.00525363 0)
(8.33791 0.00607744 0)
(8.33961 0.0067476 0)
(8.34147 0.00726333 0)
(8.34345 0.00762782 0)
(8.34552 0.00784678 0)
(8.34766 0.0079273 0)
(8.34985 0.00787707 0)
(8.35206 0.00770382 0)
(8.3543 0.00741493 0)
(8.35654 0.00701718 0)
(8.35878 0.00651669 0)
(8.361 0.0059188 0)
(8.36322 0.00522803 0)
(8.36541 0.00444807 0)
(8.36758 0.00358188 0)
(8.36972 0.00263173 0)
(8.37184 0.00159923 0)
(8.37393 0.000485445 0)
(8.37598 -0.000708996 0)
(8.378 -0.00198382 0)
(8.37999 -0.00333896 0)
(8.38193 -0.0047744 0)
(8.38384 -0.00629008 0)
(8.3857 -0.00788567 0)
(8.38752 -0.00956052 0)
(8.38929 -0.0113134 0)
(8.39101 -0.013143 0)
(8.39267 -0.0150448 0)
(8.33303 0.000556523 0)
(8.33334 0.00164657 0)
(8.33401 0.00266589 0)
(8.33498 0.00358596 0)
(8.3362 0.00438847 0)
(8.33764 0.00506131 0)
(8.33925 0.00559821 0)
(8.34102 0.0059977 0)
(8.34291 0.00626171 0)
(8.34488 0.00639439 0)
(8.34693 0.0064012 0)
(8.34903 0.0062882 0)
(8.35115 0.00606156 0)
(8.3533 0.00572729 0)
(8.35545 0.00529084 0)
(8.3576 0.0047573 0)
(8.35974 0.00413109 0)
(8.36187 0.00341595 0)
(8.36397 0.00261499 0)
(8.36605 0.00173068 0)
(8.36811 0.000764961 0)
(8.37013 -0.000280717 0)
(8.37212 -0.00140534 0)
(8.37407 -0.00260824 0)
(8.37599 -0.00388894 0)
(8.37787 -0.00524712 0)
(8.3797 -0.00668246 0)
(8.38149 -0.00819451 0)
(8.38324 -0.00978264 0)
(8.38493 -0.0114459 0)
(8.38658 -0.0131828 0)
(8.38817 -0.0149921 0)
(8.3897 -0.0168693 0)
(8.33303 0.00045409 0)
(8.33332 0.00134241 0)
(8.33396 0.00216892 0)
(8.33487 0.00290848 0)
(8.33602 0.00354516 0)
(8.33739 0.00406798 0)
(8.33892 0.00447127 0)
(8.34061 0.00475333 0)
(8.34241 0.00491513 0)
(8.3443 0.00495957 0)
(8.34626 0.00489078 0)
(8.34826 0.0047134 0)
(8.35031 0.00443217 0)
(8.35237 0.00405183 0)
(8.35443 0.00357648 0)
(8.3565 0.00301043 0)
(8.35855 0.0023571 0)
(8.36059 0.00161942 0)
(8.36261 0.000799892 0)
(8.3646 -9.94354e-05 0)
(8.36656 -0.00107697 0)
(8.36849 -0.00213148 0)
(8.37038 -0.00326204 0)
(8.37223 -0.00446793 0)
(8.37404 -0.0057486 0)
(8.37581 -0.00710354 0)
(8.37754 -0.0085322 0)
(8.37921 -0.0100339 0)
(8.38084 -0.0116078 0)
(8.38242 -0.0132527 0)
(8.38394 -0.0149672 0)
(8.3854 -0.0167498 0)
(8.38681 -0.0185963 0)
(8.33303 0.000354602 0)
(8.33331 0.00104709 0)
(8.33391 0.00168646 0)
(8.33477 0.00225063 0)
(8.33586 0.00272609 0)
(8.33716 0.00310281 0)
(8.33862 0.00337567 0)
(8.34023 0.00354269 0)
(8.34195 0.00360409 0)
(8.34376 0.0035617 0)
(8.34563 0.00341843 0)
(8.34756 0.00317746 0)
(8.34952 0.00284227 0)
(8.3515 0.00241692 0)
(8.35348 0.0019033 0)
(8.35546 0.00130543 0)
(8.35743 0.000626062 0)
(8.35938 -0.000132638 0)
(8.36131 -0.000968737 0)
(8.36321 -0.00188061 0)
(8.36508 -0.00286699 0)
(8.36692 -0.00392683 0)
(8.36871 -0.00505931 0)
(8.37047 -0.00626373 0)
(8.37217 -0.00753947 0)
(8.37384 -0.00888591 0)
(8.37545 -0.0103024 0)
(8.37702 -0.011788 0)
(8.37853 -0.0133419 0)
(8.37999 -0.0149627 0)
(8.38139 -0.016649 0)
(8.38273 -0.0183992 0)
(8.38401 -0.0202096 0)
(8.33303 0.000257763 0)
(8.33329 0.000759089 0)
(8.33386 0.00121422 0)
(8.33468 0.00160337 0)
(8.33572 0.00191507 0)
(8.33695 0.00214108 0)
(8.33835 0.00227873 0)
(8.33988 0.00232595 0)
(8.34153 0.0022824 0)
(8.34327 0.00214898 0)
(8.34507 0.00192823 0)
(8.34692 0.00162202 0)
(8.3488 0.00123232 0)
(8.35069 0.000760815 0)
(8.3526 0.000211517 0)
(8.3545 -0.000414935 0)
(8.35639 -0.00111683 0)
(8.35825 -0.00189243 0)
(8.3601 -0.00274032 0)
(8.36191 -0.00365943 0)
(8.36369 -0.00464879 0)
(8.36543 -0.00570762 0)
(8.36713 -0.00683525 0)
(8.36878 -0.00803105 0)
(8.37039 -0.00929442 0)
(8.37195 -0.0106247 0)
(8.37345 -0.0120211 0)
(8.37491 -0.0134828 0)
(8.3763 -0.0150087 0)
(8.37764 -0.0165976 0)
(8.37893 -0.0182479 0)
(8.38015 -0.0199582 0)
(8.38131 -0.0217249 0)
(8.33302 0.000163768 0)
(8.33327 0.000481012 0)
(8.33381 0.000761191 0)
(8.33459 0.000987388 0)
(8.33558 0.0011512 0)
(8.33675 0.00123979 0)
(8.33809 0.00125318 0)
(8.33956 0.00119018 0)
(8.34114 0.00104986 0)
(8.34281 0.000832634 0)
(8.34455 0.000538374 0)
(8.34633 0.000168553 0)
(8.34813 -0.000274985 0)
(8.34996 -0.000791505 0)
(8.35179 -0.00137789 0)
(8.35361 -0.00203432 0)
(8.35542 -0.00275975 0)
(8.35721 -0.00355297 0)
(8.35897 -0.0044131 0)
(8.36069 -0.00533941 0)
(8.36238 -0.00633124 0)
(8.36403 -0.00738803 0)
(8.36564 -0.00850924 0)
(8.36719 -0.00969434 0)
(8.3687 -0.0109428 0)
(8.37015 -0.0122538 0)
(8.37156 -0.0136268 0)
(8.3729 -0.0150609 0)
(8.37419 -0.0165548 0)
(8.37541 -0.0181075 0)
(8.37658 -0.0197175 0)
(8.37768 -0.0213834 0)
(8.37872 -0.0231019 0)
(8.33302 7.0985e-05 0)
(8.33326 0.00020138 0)
(8.33378 0.00029398 0)
(8.33452 0.000334019 0)
(8.33547 0.000315325 0)
(8.33659 0.000244322 0)
(8.33788 0.000114131 0)
(8.33929 -7.63028e-05 0)
(8.34082 -0.000326482 0)
(8.34242 -0.000636383 0)
(8.34409 -0.00100738 0)
(8.3458 -0.00143944 0)
(8.34754 -0.00193235 0)
(8.34929 -0.00248585 0)
(8.35105 -0.00310149 0)
(8.3528 -0.00377832 0)
(8.35453 -0.00451622 0)
(8.35624 -0.0053152 0)
(8.35792 -0.00617515 0)
(8.35956 -0.00709591 0)
(8.36116 -0.00807729 0)
(8.36272 -0.00911905 0)
(8.36423 -0.0102209 0)
(8.36569 -0.0113824 0)
(8.3671 -0.0126031 0)
(8.36846 -0.0138825 0)
(8.36976 -0.0152198 0)
(8.37099 -0.0166141 0)
(8.37217 -0.0180644 0)
(8.37329 -0.0195695 0)
(8.37434 -0.021128 0)
(8.37533 -0.0227385 0)
(8.37626 -0.0243979 0)
(8.33302 -1.51838e-05 0)
(8.33324 -4.46588e-05 0)
(8.33371 -9.53814e-05 0)
(8.33441 -0.000184257 0)
(8.33531 -0.000320857 0)
(8.3364 -0.000501705 0)
(8.33764 -0.000735076 0)
(8.33902 -0.00102236 0)
(8.34049 -0.00136272 0)
(8.34205 -0.00175608 0)
(8.34367 -0.00220166 0)
(8.34533 -0.00269962 0)
(8.34701 -0.00325049 0)
(8.34871 -0.00385445 0)
(8.3504 -0.00451194 0)
(8.35208 -0.00522293 0)
(8.35374 -0.00598774 0)
(8.35538 -0.00680665 0)
(8.35698 -0.00767987 0)
(8.35854 -0.00860753 0)
(8.36006 -0.00958969 0)
(8.36154 -0.0106264 0)
(8.36296 -0.0117175 0)
(8.36433 -0.0128628 0)
(8.36564 -0.014062 0)
(8.3669 -0.0153147 0)
(8.36809 -0.0166202 0)
(8.36923 -0.0179778 0)
(8.3703 -0.0193865 0)
(8.37131 -0.0208454 0)
(8.37225 -0.022353 0)
(8.37313 -0.0239084 0)
(8.37394 -0.0255084 0)
(8.33303 -0.000112102 0)
(8.33325 -0.000359619 0)
(8.33372 -0.000653065 0)
(8.33441 -0.00099252 0)
(8.33528 -0.00136373 0)
(8.33632 -0.00176251 0)
(8.33752 -0.00218008 0)
(8.33883 -0.00261521 0)
(8.34026 -0.00307051 0)
(8.34176 -0.00354984 0)
(8.34332 -0.00405737 0)
(8.34492 -0.00459742 0)
(8.34654 -0.00517381 0)
(8.34817 -0.00578977 0)
(8.3498 -0.00644812 0)
(8.35141 -0.0071511 0)
(8.35301 -0.0079005 0)
(8.35457 -0.00869774 0)
(8.3561 -0.00954392 0)
(8.35759 -0.0104398 0)
(8.35903 -0.011386 0)
(8.36042 -0.0123827 0)
(8.36176 -0.0134302 0)
(8.36304 -0.0145283 0)
(8.36426 -0.0156768 0)
(8.36543 -0.0168752 0)
(8.36653 -0.0181231 0)
(8.36756 -0.0194196 0)
(8.36854 -0.0207638 0)
(8.36944 -0.0221546 0)
(8.37028 -0.0235909 0)
(8.37105 -0.0250715 0)
(8.37176 -0.0265934 0)
(8.333 -0.000159474 0)
(8.33315 -0.000441635 0)
(8.33354 -0.000728247 0)
(8.33416 -0.00105699 0)
(8.335 -0.00144076 0)
(8.33604 -0.00187918 0)
(8.33724 -0.00236415 0)
(8.33856 -0.00288824 0)
(8.33999 -0.00344594 0)
(8.34148 -0.0040337 0)
(8.34303 -0.00464984 0)
(8.34461 -0.00529421 0)
(8.3462 -0.00596763 0)
(8.34779 -0.00667148 0)
(8.34937 -0.00740747 0)
(8.35093 -0.00817733 0)
(8.35247 -0.00898276 0)
(8.35397 -0.00982535 0)
(8.35542 -0.0107065 0)
(8.35684 -0.0116275 0)
(8.3582 -0.0125893 0)
(8.35951 -0.0135927 0)
(8.36076 -0.0146383 0)
(8.36196 -0.0157264 0)
(8.36309 -0.0168573 0)
(8.36416 -0.0180309 0)
(8.36517 -0.019247 0)
(8.36611 -0.0205051 0)
(8.36698 -0.0218047 0)
(8.36779 -0.0231449 0)
(8.36852 -0.024525 0)
(8.36919 -0.0259439 0)
(8.36979 -0.0273993 0)
(8.33305 -0.000346348 0)
(8.33333 -0.00111501 0)
(8.33378 -0.00196408 0)
(8.33439 -0.00282744 0)
(8.33517 -0.0036489 0)
(8.33612 -0.00440864 0)
(8.33722 -0.00510834 0)
(8.33846 -0.00575889 0)
(8.3398 -0.00637435 0)
(8.34122 -0.00696885 0)
(8.3427 -0.00755529 0)
(8.34422 -0.00814486 0)
(8.34575 -0.00874687 0)
(8.34729 -0.00936882 0)
(8.34882 -0.0100167 0)
(8.35033 -0.010695 0)
(8.35181 -0.0114075 0)
(8.35325 -0.0121567 0)
(8.35465 -0.0129448 0)
(8.35601 -0.0137732 0)
(8.35731 -0.0146429 0)
(8.35855 -0.0155546 0)
(8.35973 -0.0165087 0)
(8.36085 -0.0175051 0)
(8.36191 -0.0185439 0)
(8.3629 -0.0196245 0)
(8.36383 -0.0207466 0)
(8.36468 -0.0219095 0)
(8.36547 -0.0231123 0)
(8.36618 -0.0243542 0)
(8.36683 -0.0256339 0)
(8.3674 -0.0269506 0)
(8.3679 -0.0283017 0)
(8.33294 -0.000114417 0)
(8.33285 -0.000251689 0)
(8.33306 -0.00045157 0)
(8.33363 -0.00084339 0)
(8.3345 -0.00143089 0)
(8.3356 -0.00215904 0)
(8.33685 -0.00297066 0)
(8.33822 -0.00382488 0)
(8.33967 -0.00469635 0)
(8.34117 -0.0055705 0)
(8.3427 -0.00644018 0)
(8.34423 -0.00730331 0)
(8.34577 -0.00816099 0)
(8.34728 -0.00901612 0)
(8.34878 -0.0098725 0)
(8.35024 -0.0107342 0)
(8.35166 -0.0116054 0)
(8.35304 -0.0124898 0)
(8.35437 -0.0133908 0)
(8.35565 -0.0143116 0)
(8.35687 -0.0152546 0)
(8.35803 -0.0162221 0)
(8.35913 -0.0172159 0)
(8.36016 -0.0182373 0)
(8.36112 -0.0192875 0)
(8.36202 -0.0203672 0)
(8.36285 -0.0214769 0)
(8.36361 -0.0226168 0)
(8.3643 -0.0237869 0)
(8.36492 -0.024987 0)
(8.36546 -0.0262166 0)
(8.36594 -0.0274753 0)
(8.36634 -0.0287612 0)
(8.33317 -0.000805576 0)
(8.33366 -0.00275722 0)
(8.33405 -0.00476599 0)
(8.33443 -0.00649949 0)
(8.33496 -0.00788236 0)
(8.33572 -0.00896863 0)
(8.3367 -0.00983226 0)
(8.33785 -0.010537 0)
(8.33914 -0.0111344 0)
(8.34052 -0.0116649 0)
(8.34197 -0.012159 0)
(8.34345 -0.0126396 0)
(8.34495 -0.0131229 0)
(8.34644 -0.0136206 0)
(8.34792 -0.0141411 0)
(8.34937 -0.01469 0)
(8.35077 -0.0152712 0)
(8.35213 -0.0158874 0)
(8.35344 -0.0165402 0)
(8.35469 -0.0172305 0)
(8.35588 -0.0179588 0)
(8.35701 -0.0187252 0)
(8.35807 -0.0195295 0)
(8.35906 -0.0203714 0)
(8.35998 -0.0212503 0)
(8.36082 -0.0221657 0)
(8.3616 -0.0231166 0)
(8.3623 -0.0241022 0)
(8.36292 -0.0251216 0)
(8.36347 -0.0261738 0)
(8.36395 -0.0272577 0)
(8.36435 -0.0283723 0)
(8.36469 -0.0295155 0)
(8.33263 0.000550666 0)
(8.33175 0.00191278 0)
(8.33173 0.00271832 0)
(8.33254 0.00255169 0)
(8.33377 0.00163811 0)
(8.33518 0.00033041 0)
(8.33668 -0.0011408 0)
(8.33823 -0.0026527 0)
(8.33979 -0.00413932 0)
(8.34134 -0.00556549 0)
(8.34288 -0.00691646 0)
(8.34439 -0.00819036 0)
(8.34587 -0.0093923 0)
(8.34731 -0.0105308 0)
(8.34871 -0.0116156 0)
(8.35006 -0.0126568 0)
(8.35137 -0.013664 0)
(8.35262 -0.0146458 0)
(8.35382 -0.0156099 0)
(8.35496 -0.0165631 0)
(8.35604 -0.0175112 0)
(8.35705 -0.0184589 0)
(8.358 -0.0194105 0)
(8.35888 -0.0203693 0)
(8.35969 -0.0213382 0)
(8.36043 -0.0223194 0)
(8.3611 -0.0233146 0)
(8.3617 -0.0243251 0)
(8.36223 -0.0253521 0)
(8.36268 -0.026396 0)
(8.36306 -0.0274573 0)
(8.36337 -0.028536 0)
(8.36361 -0.0296313 0)
(8.33357 -0.00198767 0)
(8.33464 -0.00698404 0)
(8.33436 -0.0118318 0)
(8.33364 -0.0150447 0)
(8.3334 -0.0168694 0)
(8.33377 -0.0178906 0)
(8.3346 -0.0184284 0)
(8.33573 -0.0186767 0)
(8.33706 -0.0187705 0)
(8.33853 -0.018797 0)
(8.34007 -0.0188109 0)
(8.34165 -0.0188451 0)
(8.34323 -0.0189188 0)
(8.34479 -0.0190425 0)
(8.34632 -0.019221 0)
(8.3478 -0.0194557 0)
(8.34922 -0.0197462 0)
(8.35059 -0.0200909 0)
(8.35189 -0.0204875 0)
(8.35311 -0.0209336 0)
(8.35427 -0.0214266 0)
(8.35536 -0.0219641 0)
(8.35636 -0.0225437 0)
(8.3573 -0.0231632 0)
(8.35815 -0.0238206 0)
(8.35893 -0.0245139 0)
(8.35963 -0.0252413 0)
(8.36026 -0.0260012 0)
(8.3608 -0.0267919 0)
(8.36127 -0.0276119 0)
(8.36166 -0.0284599 0)
(8.36198 -0.0293347 0)
(8.36222 -0.0302342 0)
(8.33162 0.00367554 0)
(8.32827 0.0101904 0)
(8.32843 0.0133213 0)
(8.33096 0.0132327 0)
(8.3335 0.0111214 0)
(8.33563 0.00822748 0)
(8.33753 0.00517731 0)
(8.33927 0.00221022 0)
(8.34088 -0.000562117 0)
(8.34238 -0.00309186 0)
(8.34381 -0.00537394 0)
(8.34519 -0.00742459 0)
(8.34653 -0.00926834 0)
(8.34782 -0.0109322 0)
(8.34908 -0.0124426 0)
(8.35031 -0.0138242 0)
(8.3515 -0.0150985 0)
(8.35265 -0.0162847 0)
(8.35376 -0.0173989 0)
(8.35482 -0.018455 0)
(8.35583 -0.0194647 0)
(8.35679 -0.0204378 0)
(8.3577 -0.0213825 0)
(8.35854 -0.0223057 0)
(8.35933 -0.0232132 0)
(8.36005 -0.0241096 0)
(8.36071 -0.0249989 0)
(8.3613 -0.0258842 0)
(8.36183 -0.0267682 0)
(8.36228 -0.0276528 0)
(8.36267 -0.0285395 0)
(8.36298 -0.0294295 0)
(8.36322 -0.0303231 0)
(8.33429 -0.0064488 0)
(8.3346 -0.0207338 0)
(8.33068 -0.0300003 0)
(8.32663 -0.0340448 0)
(8.32469 -0.0349675 0)
(8.32475 -0.0344516 0)
(8.32589 -0.033311 0)
(8.32756 -0.0319391 0)
(8.32955 -0.0305591 0)
(8.33173 -0.0292883 0)
(8.334 -0.0281788 0)
(8.33629 -0.027247 0)
(8.33858 -0.0264918 0)
(8.34082 -0.0259028 0)
(8.34301 -0.0254656 0)
(8.34513 -0.0251645 0)
(8.34717 -0.0249842 0)
(8.34914 -0.0249107 0)
(8.35103 -0.0249311 0)
(8.35282 -0.0250343 0)
(8.35453 -0.0252105 0)
(8.35615 -0.0254514 0)
(8.35768 -0.0257495 0)
(8.35911 -0.0260987 0)
(8.36045 -0.0264936 0)
(8.3617 -0.0269296 0)
(8.36286 -0.0274028 0)
(8.36392 -0.0279097 0)
(8.36489 -0.0284473 0)
(8.36577 -0.0290131 0)
(8.36656 -0.029605 0)
(8.36727 -0.030221 0)
(8.36789 -0.030859 0)
(8.32884 0.0225884 0)
(8.32235 0.0427508 0)
(8.32666 0.0439729 0)
(8.33327 0.0380078 0)
(8.33774 0.030659 0)
(8.34051 0.0234939 0)
(8.34276 0.0168323 0)
(8.34488 0.0108562 0)
(8.34701 0.00562155 0)
(8.3492 0.00108072 0)
(8.35149 -0.00284616 0)
(8.35386 -0.00624084 0)
(8.3563 -0.00918103 0)
(8.35879 -0.0117372 0)
(8.3613 -0.013971 0)
(8.36381 -0.0159346 0)
(8.3663 -0.0176724 0)
(8.36876 -0.0192217 0)
(8.37117 -0.0206136 0)
(8.37352 -0.021874 0)
(8.3758 -0.0230247 0)
(8.37799 -0.0240838 0)
(8.3801 -0.0250665 0)
(8.38211 -0.0259855 0)
(8.38403 -0.0268514 0)
(8.38584 -0.0276731 0)
(8.38755 -0.0284581 0)
(8.38916 -0.0292127 0)
(8.39066 -0.0299423 0)
(8.39205 -0.0306514 0)
(8.39333 -0.0313438 0)
(8.39451 -0.0320224 0)
(8.39558 -0.032691 0)
(8.32436 -0.0380368 0)
(8.29385 -0.0683432 0)
(8.27212 -0.0717411 0)
(8.26664 -0.0686708 0)
(8.27354 -0.0643588 0)
(8.28615 -0.0595585 0)
(8.30088 -0.0549 0)
(8.31617 -0.0507488 0)
(8.33117 -0.0471669 0)
(8.34542 -0.0441294 0)
(8.35871 -0.0415918 0)
(8.37099 -0.0394952 0)
(8.38227 -0.0377778 0)
(8.39259 -0.0363827 0)
(8.402 -0.0352597 0)
(8.41058 -0.0343659 0)
(8.41838 -0.0336647 0)
(8.42547 -0.0331254 0)
(8.43191 -0.0327226 0)
(8.43774 -0.0324351 0)
(8.44303 -0.0322454 0)
(8.4478 -0.032139 0)
(8.4521 -0.0321037 0)
(8.45597 -0.0321295 0)
(8.45943 -0.0322081 0)
(8.46252 -0.0323324 0)
(8.46526 -0.0324964 0)
(8.46768 -0.0326951 0)
(8.4698 -0.0329243 0)
(8.47164 -0.0331801 0)
(8.47321 -0.0334593 0)
(8.47454 -0.033759 0)
(8.47565 -0.0340753 0)