/*--------------------------------*- C++ -*----------------------------------*\
| =========                 |                                                 |
| \\      /  F ield         | OpenFOAM: The Open Source CFD Toolbox           |
|  \\    /   O peration     | Version:  2.1.1                                 |
|   \\  /    A nd           | Web:      www.OpenFOAM.org                      |
|    \\/     M anipulation  |                                                 |
\*---------------------------------------------------------------------------*/
FoamFile
{
    version     2.0;
    format      ascii;
    class       volScalarField;
    location    "0.175";
    object      epsilon;
}
// * * * * * * * * * * * * * * * * * * * * * * * * * * * * * * * * * * * * * //

dimensions      [0 2 -3 0 0 0 0];

internalField   nonuniform List<scalar> 
6820
(
151.448
203.151
260.735
321.761
383.628
443.724
499.763
550.035
593.485
629.671
658.66
680.892
697.042
707.908
714.315
717.061
716.874
714.396
710.178
704.677
698.271
691.262
683.892
676.347
668.771
661.273
653.927
646.804
639.857
633.494
625.83
625.893
590.389
11.7448
21.4175
29.9442
38.6253
47.5817
56.5597
65.3223
73.6684
81.4356
88.5156
94.8535
100.442
105.312
109.519
113.135
116.238
118.905
121.208
123.214
124.98
126.554
127.979
129.289
130.512
131.672
132.79
133.886
134.983
136.107
137.328
138.664
140.595
142.754
5.83781
7.51677
9.20654
10.8091
12.3196
13.7471
15.0881
16.3388
17.4978
18.5647
19.5413
20.4314
21.2401
21.9739
22.6401
23.2464
23.8003
24.3093
24.7803
25.2195
25.6328
26.0252
26.401
26.7642
27.1178
27.4648
27.8075
28.1481
28.4884
28.8311
29.1787
29.5275
29.9289
5.2423
5.56004
6.00442
6.49344
6.98564
7.46181
7.91286
8.33448
8.72501
9.08427
9.41303
9.71264
9.98478
10.2314
10.4544
10.656
10.838
11.0025
11.1513
11.2861
11.4086
11.5203
11.6226
11.7167
11.8037
11.8846
11.9602
12.0313
12.0983
12.1615
12.2205
12.2758
12.3249
5.17349
5.18677
5.26821
5.39775
5.55637
5.72967
5.90777
6.08425
6.25508
6.41783
6.5711
6.7142
6.84689
6.96923
7.0815
7.1841
7.27754
7.36237
7.43917
7.50852
7.57102
7.62723
7.67771
7.72298
7.76355
7.79988
7.83239
7.86149
7.88752
7.91079
7.93155
7.95002
7.9663
5.16878
5.12131
5.09603
5.09482
5.11536
5.15307
5.20299
5.26075
5.32293
5.38693
5.4509
5.5135
5.57383
5.63126
5.6854
5.73604
5.78307
5.82649
5.86635
5.90276
5.93585
5.9658
5.99277
6.01695
6.03854
6.05771
6.07467
6.08959
6.10264
6.11401
6.12386
6.1323
6.13953
5.16887
5.11169
5.06115
5.01963
4.9884
4.96754
4.95615
4.95279
4.95587
4.96386
4.97543
4.98946
5.00504
5.02144
5.03812
5.05463
5.07065
5.08595
5.10035
5.11375
5.12608
5.13728
5.14737
5.15633
5.16421
5.17104
5.17687
5.18175
5.18575
5.18892
5.19134
5.19304
5.19412
5.16902
5.11063
5.05514
5.00339
4.95619
4.91413
4.87746
4.8461
4.81971
4.7978
4.77978
4.76509
4.75315
4.74347
4.73559
4.72914
4.72378
4.71925
4.71531
4.71179
4.70853
4.70542
4.70235
4.69927
4.69611
4.69284
4.68943
4.68585
4.68211
4.67821
4.67414
4.6699
4.66552
5.16904
5.11054
5.05431
5.00049
4.94927
4.9009
4.85558
4.81345
4.77454
4.7388
4.70608
4.6762
4.64893
4.62402
4.60122
4.5803
4.56103
4.54321
4.52665
4.5112
4.49669
4.48301
4.47005
4.45771
4.44591
4.43458
4.42366
4.4131
4.40287
4.39292
4.38324
4.37379
4.36455
5.16904
5.11054
5.0542
5.00002
4.94795
4.89803
4.85026
4.8047
4.76137
4.72026
4.68136
4.64463
4.60998
4.57732
4.54655
4.51754
4.49019
4.46437
4.43995
4.41684
4.39492
4.3741
4.35428
4.33538
4.31732
4.30005
4.28348
4.26758
4.25228
4.23755
4.22335
4.20963
4.19637
5.16904
5.11053
5.05418
4.99994
4.94772
4.89747
4.84912
4.80264
4.75798
4.71512
4.67403
4.63467
4.597
4.56098
4.52655
4.49365
4.46222
4.43219
4.40349
4.37605
4.3498
4.32469
4.30063
4.27758
4.25547
4.23424
4.21386
4.19425
4.17539
4.15723
4.13974
4.12286
4.10658
5.16904
5.11053
5.05417
4.99991
4.94767
4.89735
4.84888
4.80217
4.75718
4.71383
4.67207
4.63186
4.59314
4.55587
4.52
4.48548
4.45228
4.42034
4.38961
4.36005
4.33161
4.30423
4.27789
4.25252
4.22809
4.20456
4.18187
4.16001
4.13892
4.11857
4.09893
4.07996
4.06164
5.16904
5.11052
5.05416
4.99989
4.94764
4.8973
4.8488
4.80205
4.75697
4.7135
4.67156
4.6311
4.59206
4.55439
4.51803
4.48294
4.44907
4.41638
4.38482
4.35435
4.32494
4.29654
4.26911
4.24262
4.21702
4.1923
4.16841
4.14532
4.123
4.10142
4.08055
4.06036
4.04082
5.16904
5.11052
5.05415
4.99988
4.94762
4.89727
4.84876
4.80199
4.75689
4.71339
4.6714
4.63088
4.59175
4.55396
4.51745
4.48217
4.44808
4.41513
4.38327
4.35246
4.32267
4.29386
4.26598
4.23901
4.21291
4.18765
4.1632
4.13953
4.11661
4.09441
4.07291
4.05209
4.03191
5.16903
5.11051
5.05414
4.99987
4.9476
4.89725
4.84873
4.80195
4.75684
4.71332
4.67132
4.63077
4.59161
4.55379
4.51723
4.4819
4.44774
4.4147
4.38275
4.35183
4.3219
4.29294
4.2649
4.23774
4.21144
4.18597
4.16128
4.13737
4.11419
4.09172
4.06994
4.04882
4.02834
5.16903
5.11051
5.05414
4.99986
4.94758
4.89723
4.8487
4.80191
4.75679
4.71326
4.67125
4.63069
4.59152
4.55368
4.51711
4.48176
4.44758
4.41451
4.38252
4.35156
4.32159
4.29258
4.26447
4.23725
4.21088
4.18532
4.16055
4.13654
4.11326
4.09068
4.06878
4.04754
4.02692
5.16903
5.1105
5.05413
4.99985
4.94757
4.89721
4.84867
4.80188
4.75675
4.71322
4.6712
4.63063
4.59145
4.5536
4.51702
4.48165
4.44746
4.41438
4.38237
4.3514
4.32141
4.29237
4.26425
4.237
4.2106
4.18501
4.16021
4.13616
4.11284
4.09021
4.06826
4.04697
4.0263
5.16903
5.1105
5.05412
4.99984
4.94756
4.89719
4.84865
4.80185
4.75672
4.71317
4.67114
4.63057
4.59138
4.55352
4.51693
4.48156
4.44735
4.41426
4.38225
4.35126
4.32126
4.29222
4.26408
4.23682
4.21041
4.1848
4.15998
4.13591
4.11257
4.08993
4.06796
4.04664
4.02594
5.16903
5.1105
5.05412
4.99983
4.94755
4.89718
4.84863
4.80183
4.75669
4.71313
4.6711
4.63052
4.59132
4.55345
4.51685
4.48147
4.44726
4.41416
4.38214
4.35114
4.32113
4.29208
4.26393
4.23666
4.21024
4.18462
4.15979
4.13571
4.11235
4.0897
4.06771
4.04638
4.02566
5.16903
5.1105
5.05412
4.99982
4.94754
4.89716
4.84861
4.8018
4.75666
4.7131
4.67106
4.63047
4.59126
4.55339
4.51678
4.48139
4.44717
4.41407
4.38203
4.35103
4.32101
4.29195
4.26379
4.23652
4.21008
4.18446
4.15962
4.13553
4.11216
4.08949
4.06749
4.04615
4.02542
5.16903
5.1105
5.05411
4.99982
4.94753
4.89715
4.8486
4.80178
4.75663
4.71307
4.67102
4.63042
4.59121
4.55333
4.51672
4.48132
4.44709
4.41398
4.38194
4.35093
4.3209
4.29183
4.26367
4.23638
4.20994
4.1843
4.15945
4.13535
4.11198
4.0893
4.06729
4.04593
4.02519
5.16903
5.11049
5.05411
4.99981
4.94752
4.89714
4.84858
4.80176
4.75661
4.71304
4.67099
4.63038
4.59117
4.55328
4.51666
4.48126
4.44702
4.4139
4.38185
4.35083
4.3208
4.29172
4.26355
4.23625
4.2098
4.18416
4.1593
4.13519
4.1118
4.08911
4.0671
4.04573
4.02498
5.16903
5.11049
5.05411
4.99981
4.94752
4.89713
4.84857
4.80175
4.75659
4.71302
4.67096
4.63035
4.59113
4.55323
4.51661
4.4812
4.44695
4.41383
4.38177
4.35075
4.32071
4.29162
4.26344
4.23614
4.20968
4.18403
4.15916
4.13504
4.11164
4.08894
4.06692
4.04554
4.02478
5.16903
5.11049
5.05411
4.99981
4.94751
4.89712
4.84856
4.80174
4.75657
4.71299
4.67093
4.63032
4.59109
4.55319
4.51656
4.48114
4.44689
4.41376
4.3817
4.35067
4.32062
4.29152
4.26334
4.23603
4.20956
4.1839
4.15902
4.1349
4.11149
4.08878
4.06675
4.04536
4.02459
5.16903
5.11049
5.0541
4.9998
4.94751
4.89712
4.84855
4.80172
4.75656
4.71297
4.67091
4.63029
4.59106
4.55315
4.51652
4.4811
4.44684
4.4137
4.38163
4.35059
4.32054
4.29144
4.26324
4.23593
4.20945
4.18379
4.1589
4.13476
4.11135
4.08863
4.06659
4.04519
4.02442
5.16903
5.11049
5.0541
4.9998
4.9475
4.89711
4.84854
4.80171
4.75654
4.71296
4.67089
4.63027
4.59103
4.55312
4.51648
4.48106
4.4468
4.41365
4.38158
4.35053
4.32047
4.29136
4.26316
4.23584
4.20936
4.18368
4.15879
4.13464
4.11122
4.0885
4.06645
4.04504
4.02425
5.16903
5.11049
5.0541
4.9998
4.9475
4.89711
4.84854
4.8017
4.75653
4.71294
4.67087
4.63025
4.59101
4.55309
4.51645
4.48102
4.44675
4.4136
4.38152
4.35047
4.32041
4.29129
4.26309
4.23575
4.20927
4.18359
4.15868
4.13453
4.11111
4.08837
4.06631
4.0449
4.0241
5.16903
5.11049
5.0541
4.9998
4.9475
4.89711
4.84853
4.8017
4.75653
4.71294
4.67086
4.63024
4.59099
4.55308
4.51643
4.48099
4.44672
4.41357
4.38149
4.35043
4.32036
4.29124
4.26303
4.23569
4.20919
4.18351
4.1586
4.13444
4.11101
4.08827
4.0662
4.04478
4.02397
5.16903
5.11049
5.0541
4.9998
4.9475
4.8971
4.84853
4.80169
4.75651
4.71292
4.67084
4.63021
4.59097
4.55305
4.5164
4.48096
4.44669
4.41353
4.38144
4.35038
4.32031
4.29118
4.26297
4.23562
4.20912
4.18343
4.15852
4.13436
4.11091
4.08817
4.06609
4.04467
4.02386
5.16903
5.11049
5.0541
4.9998
4.9475
4.89711
4.84854
4.8017
4.75653
4.71294
4.67086
4.63023
4.59098
4.55306
4.51641
4.48097
4.44669
4.41353
4.38144
4.35037
4.3203
4.29117
4.26294
4.2356
4.20909
4.18339
4.15847
4.13431
4.11086
4.08811
4.06603
4.04459
4.02378
5.16903
5.11049
5.0541
4.9998
4.9475
4.8971
4.84853
4.80169
4.75651
4.71292
4.67084
4.63021
4.59096
4.55304
4.51638
4.48094
4.44666
4.4135
4.38141
4.35035
4.32027
4.29114
4.26292
4.23557
4.20906
4.18337
4.15845
4.13428
4.11083
4.08808
4.066
4.04457
4.02375
5.16903
5.11049
5.0541
4.99981
4.94752
4.89714
4.84858
4.80176
4.7566
4.71301
4.67094
4.63031
4.59107
4.55315
4.51649
4.48105
4.44678
4.41362
4.38153
4.35046
4.32039
4.29126
4.26304
4.2357
4.2092
4.18351
4.1586
4.13444
4.111
4.08826
4.0662
4.04478
4.02398
5.16903
5.11051
5.05414
4.99985
4.94756
4.89718
4.84861
4.80178
4.75661
4.71303
4.67096
4.63034
4.59111
4.55321
4.51658
4.48116
4.44691
4.41379
4.38174
4.35072
4.32069
4.29161
4.26345
4.23617
4.20974
4.18412
4.15929
4.13521
4.11186
4.08921
4.06724
4.04592
4.02522
5.16903
5.1105
5.05415
4.99992
4.9477
4.89739
4.8489
4.80214
4.75704
4.71353
4.67153
4.63098
4.59183
4.55403
4.51751
4.48222
4.44812
4.41517
4.3833
4.35249
4.32269
4.29387
4.26598
4.23899
4.21286
4.18757
4.16307
4.13935
4.11637
4.0941
4.07253
4.05161
4.03133
5.16905
5.11063
5.0544
5.00025
4.94809
4.89785
4.84947
4.80288
4.75802
4.71483
4.67324
4.6332
4.59464
4.55751
4.52175
4.48732
4.45414
4.42219
4.39139
4.36171
4.3331
4.30552
4.27892
4.25325
4.22849
4.20458
4.1815
4.15921
4.13768
4.11687
4.09676
4.07731
4.05849
5.16908
5.11079
5.05488
5.00137
4.95017
4.90121
4.85441
4.80974
4.76713
4.72652
4.68784
4.65103
4.61599
4.58265
4.55092
4.52071
4.49193
4.46451
4.43836
4.41342
4.3896
4.36684
4.34507
4.32424
4.30429
4.28517
4.26682
4.2492
4.23228
4.216
4.20034
4.18525
4.17071
5.16939
5.11358
5.06201
5.01464
4.97149
4.93251
4.8975
4.8662
4.83831
4.81348
4.7914
4.77176
4.75429
4.73872
4.72481
4.71236
4.70119
4.69113
4.68203
4.67376
4.66622
4.65931
4.65294
4.64703
4.64153
4.63637
4.63151
4.6269
4.62251
4.6183
4.61425
4.61034
4.60654
5.17809
5.16328
5.16952
5.19123
5.22445
5.26613
5.3139
5.36588
5.42062
5.47706
5.53434
5.59182
5.64898
5.70545
5.76093
5.8152
5.8681
5.91951
5.96937
6.01761
6.06422
6.10919
6.15253
6.19425
6.2344
6.27299
6.31008
6.3457
6.37991
6.41274
6.44426
6.4745
6.50354
5.63861
6.43043
7.14587
7.82557
8.49452
9.14671
9.77626
10.3808
10.9602
11.5154
12.0476
12.5585
13.0496
13.5222
13.9777
14.4172
14.8416
15.2517
15.6484
16.0324
16.4042
16.7644
17.1135
17.4519
17.7801
18.0984
18.4073
18.7071
18.9981
19.2807
19.5551
19.8217
20.0807
44.7794
48.3124
51.8864
55.4656
59.0311
62.5709
66.0744
69.5319
72.9347
76.2749
79.5457
82.7413
85.8569
88.8883
91.8325
94.687
97.4503
100.121
102.699
105.185
107.578
109.879
112.091
114.213
116.249
118.2
120.067
121.854
123.563
125.196
126.755
128.243
129.664
704.473
838.227
943.206
1022.14
1080.92
1120.77
1140.48
1139.61
1119.77
1084.71
1039.39
988.824
937.181
887.329
840.844
798.275
759.517
724.155
691.706
661.751
633.979
608.177
584.196
561.911
541.196
521.915
503.916
487.038
471.121
456.009
441.56
427.641
414.136
400.941
387.96
375.109
362.314
349.507
336.631
323.636
310.485
297.15
283.614
269.875
255.942
241.838
227.602
213.284
198.949
184.672
170.539
156.644
143.087
129.968
117.385
105.43
94.1874
83.7246
74.0939
65.3284
57.4406
50.423
44.2492
38.8762
34.2483
30.3007
26.9637
24.1669
21.8419
19.9255
18.3604
17.0969
16.0927
15.3124
14.7273
14.3143
14.0552
13.9354
13.9435
14.0699
14.3058
14.6425
15.0701
15.5765
16.1473
16.7643
17.4063
18.049
18.6653
19.2272
19.706
20.0743
20.3072
20.3826
20.2836
19.9956
19.5181
18.8194
18.0613
16.4075
147.926
155.313
165.887
180.897
201.134
227.11
258.958
296.024
336.824
379.176
420.492
458.166
489.959
514.316
530.542
538.801
539.947
535.279
526.258
514.285
500.543
485.931
471.063
456.31
441.862
427.794
414.111
400.786
387.781
375.053
362.561
350.263
338.118
326.083
314.115
302.171
290.214
278.206
266.122
253.939
241.646
229.242
216.733
204.14
191.493
178.833
166.213
153.695
141.351
129.258
117.499
106.159
95.3211
85.0633
75.4553
66.5545
58.4036
51.0277
44.4337
38.6099
33.5273
29.1423
25.3998
22.2369
19.5875
17.3854
15.5677
14.0769
12.8621
11.8794
11.0924
10.471
9.9914
9.6349
9.38734
9.23831
9.18057
9.20935
9.32184
9.51646
9.79226
10.148
10.5815
11.0883
11.6611
12.2886
12.9554
13.6413
14.3225
14.9717
15.5599
16.0578
16.4377
16.6743
16.7472
16.6395
16.3468
15.8401
15.2599
13.894
30.3091
30.7377
31.3793
32.4243
34.0401
36.4199
39.6258
43.8858
49.5363
56.9016
66.2567
77.7767
91.4844
107.21
124.575
143.008
161.795
180.152
197.316
212.633
225.621
236
243.7
248.82
251.586
252.293
251.263
248.803
245.183
240.627
235.313
229.373
222.905
215.98
208.65
200.956
192.932
184.609
176.018
167.191
158.164
148.976
139.673
130.303
120.924
111.595
102.383
93.3574
84.5881
76.1463
68.0997
60.5109
53.4338
46.9116
40.9744
35.6376
30.9011
26.7501
23.1565
20.0809
17.476
15.2899
13.4695
11.9631
10.7227
9.70539
8.87384
8.19658
7.64759
7.20577
6.85434
6.58021
6.37345
6.22677
6.13518
6.09564
6.10681
6.1688
6.283
6.45174
6.67802
6.96499
7.31533
7.73043
8.20941
8.74807
9.33789
9.96542
10.612
11.2542
11.8649
12.4149
12.8746
13.2163
13.4158
13.4532
13.3196
12.9879
12.5741
11.4945
12.3763
12.4437
12.5279
12.6343
12.7764
12.9754
13.2535
13.6439
14.1543
14.8227
15.7003
16.8476
18.3329
20.2301
22.6158
25.5628
29.1308
33.3553
38.2356
43.7253
49.7288
56.1032
62.6677
69.218
75.5425
81.4404
86.7353
91.2872
94.9974
97.8098
99.7071
100.704
100.841
100.173
98.7658
96.6901
94.0176
90.8195
87.1655
83.1242
78.763
74.1488
69.3481
64.4275
59.4529
54.4895
49.6003
44.8455
40.2806
35.9545
31.9088
28.1755
24.7764
21.7224
19.014
16.6415
14.5871
12.8265
11.331
10.0701
9.01303
8.13064
7.39613
6.78584
6.27935
5.85943
5.51175
5.22462
4.98857
4.79611
4.64136
4.51989
4.42849
4.36504
4.32838
4.31831
4.33547
4.38137
4.45833
4.56947
4.7186
4.91004
5.1483
5.43759
5.78109
6.17996
6.63226
7.13184
7.66745
8.22238
8.77476
9.29869
9.76588
10.1479
10.4184
10.5547
10.5433
10.3584
10.0902
9.28051
7.98275
8.00009
8.01654
8.03234
8.04868
8.06815
8.09428
8.13219
8.18546
8.25728
8.35353
8.48176
8.65104
8.87177
9.15552
9.51481
9.96272
10.5124
11.1766
11.9664
12.8908
13.9556
15.1613
16.5026
17.9661
19.5298
21.1624
22.824
24.4676
26.0422
27.4959
28.7792
29.8482
30.6672
31.2103
31.4622
31.4184
31.0847
30.4756
29.6138
28.5281
27.2521
25.8226
24.2784
22.6584
21.0007
19.341
17.7119
16.1414
14.6528
13.2635
11.9856
10.8256
9.78512
8.86177
8.04981
7.34129
6.72692
6.1968
5.74107
5.35032
5.01586
4.72987
4.48549
4.27674
4.09853
3.94656
3.81727
3.70775
3.61565
3.53917
3.477
3.42825
3.39252
3.36978
3.36051
3.3656
3.38646
3.42506
3.48389
3.56607
3.67529
3.81571
3.99176
4.20775
4.46728
4.77238
5.12247
5.51319
5.9355
6.37511
6.8127
7.22484
7.58593
7.87014
8.05401
8.12089
8.04582
7.89402
7.32315
6.14627
6.15182
6.15523
6.15675
6.15665
6.15526
6.15307
6.15103
6.14989
6.15055
6.15413
6.162
6.17578
6.19737
6.22892
6.2728
6.33151
6.40762
6.5036
6.62176
6.76412
6.93226
7.12718
7.34917
7.59759
7.87067
8.16533
8.47703
8.79972
9.12585
9.4466
9.75213
10.0321
10.2759
10.4739
10.6171
10.6985
10.7131
10.6584
10.5346
10.3442
10.0924
9.78633
9.43461
9.04703
8.63384
8.20526
7.77097
7.33975
6.91913
6.51525
6.13281
5.77509
5.44406
5.14058
4.86458
4.61525
4.39127
4.19098
4.01251
3.85389
3.71317
3.58847
3.47803
3.38024
3.29364
3.21696
3.1491
3.08915
3.03636
2.99019
2.95026
2.91636
2.88852
2.86694
2.85207
2.84461
2.84555
2.85622
2.87832
2.914
2.96583
3.03687
3.13057
3.25065
3.40081
3.58423
3.8029
4.05668
4.34235
4.65265
4.97579
5.29548
5.59196
5.8434
6.02835
6.12945
6.12372
6.05422
5.67818
5.19451
5.19377
5.19165
5.18812
5.18318
5.17686
5.16925
5.16058
5.15099
5.14073
5.1301
5.1194
5.10899
5.09929
5.0908
5.08408
5.07974
5.07845
5.08089
5.08772
5.09954
5.11687
5.14008
5.16938
5.20475
5.24589
5.29224
5.34288
5.39658
5.45177
5.50658
5.55888
5.60637
5.64665
5.67734
5.69619
5.70118
5.69069
5.66354
5.61909
5.55729
5.47866
5.38431
5.27582
5.15518
5.02469
4.88679
4.74401
4.59878
4.45339
4.30987
4.16999
4.03517
3.90652
3.78482
3.67058
3.56403
3.46518
3.37387
3.2898
3.21257
3.14171
3.07672
3.01707
2.96227
2.91183
2.86532
2.82235
2.78258
2.74576
2.71168
2.68026
2.65145
2.62533
2.60209
2.58204
2.56564
2.55349
2.54645
2.54556
2.55218
2.56797
2.59491
2.63538
2.69202
2.7677
2.86524
2.98707
3.13463
3.30771
3.50359
3.71636
3.93644
4.15079
4.34355
4.49772
4.59805
4.62492
4.60432
4.37242
4.66016
4.65351
4.6461
4.63786
4.62877
4.61884
4.60806
4.59645
4.58405
4.57088
4.55699
4.54246
4.52735
4.51175
4.49577
4.47953
4.46319
4.44692
4.43091
4.41536
4.40049
4.3865
4.37356
4.36181
4.35132
4.34211
4.3341
4.32712
4.32088
4.31501
4.30901
4.30234
4.29434
4.28435
4.27168
4.25566
4.23566
4.21117
4.18176
4.14715
4.10723
4.06203
4.01179
3.95688
3.8978
3.83519
3.76976
3.70229
3.63356
3.56433
3.49535
3.42727
3.36066
3.29601
3.23369
3.17398
3.11705
3.06298
3.01177
2.96337
2.91765
2.87444
2.83357
2.79482
2.758
2.72288
2.68928
2.65703
2.62598
2.59601
2.56704
2.53903
2.512
2.48599
2.46112
2.43759
2.41568
2.39574
2.37827
2.3639
2.35345
2.34791
2.34853
2.35679
2.37444
2.40343
2.44584
2.50366
2.57853
2.67127
2.78136
2.90636
3.04133
3.17873
3.30843
3.41866
3.49786
3.53086
3.53234
3.39578
4.35398
4.34184
4.32939
4.31657
4.30334
4.28968
4.27555
4.26093
4.24582
4.23021
4.2141
4.1975
4.1804
4.1628
4.1447
4.12613
4.10709
4.08762
4.06774
4.04751
4.02698
4.00622
3.98529
3.96425
3.94317
3.92207
3.90099
3.8799
3.85877
3.83753
3.81606
3.79422
3.77184
3.74873
3.72469
3.69952
3.67301
3.64501
3.61537
3.58399
3.55083
3.5159
3.47926
3.44103
3.40139
3.36056
3.3188
3.27638
3.2336
3.19076
3.14813
3.10598
3.06453
3.02399
2.98451
2.94619
2.90911
2.87328
2.8387
2.80533
2.77308
2.74187
2.71159
2.68213
2.65336
2.62518
2.59746
2.57011
2.54305
2.51621
2.48954
2.46302
2.43666
2.41049
2.38458
2.35904
2.33403
2.30976
2.28651
2.26465
2.24464
2.22708
2.21269
2.20239
2.19724
2.19849
2.20754
2.22581
2.25464
2.29501
2.34723
2.41055
2.4827
2.55974
2.63578
2.7035
2.75514
2.77999
2.78627
2.70564
4.18142
4.16454
4.14761
4.13058
4.11341
4.09609
4.07858
4.06086
4.04292
4.02474
4.00631
3.9876
3.96861
3.94931
3.92969
3.90973
3.88942
3.86874
3.84768
3.82624
3.80442
3.78222
3.75967
3.73677
3.71355
3.69002
3.66621
3.64214
3.61779
3.59319
3.56831
3.54313
3.51763
3.49176
3.46548
3.43875
3.41152
3.38376
3.35543
3.32651
3.29702
3.26696
3.23637
3.20532
3.17388
3.14215
3.11023
3.07825
3.04632
3.01456
2.98308
2.952
2.92139
2.89133
2.86186
2.83302
2.8048
2.77721
2.75019
2.72371
2.69769
2.67207
2.64675
2.62167
2.59672
2.57184
2.54694
2.52195
2.49682
2.4715
2.44595
2.42015
2.39411
2.36785
2.3414
2.31482
2.28821
2.26168
2.23541
2.20959
2.1845
2.16047
2.13793
2.11739
2.09951
2.08504
2.07485
2.0699
2.07113
2.07938
2.09516
2.11845
2.14838
2.18305
2.21934
2.25299
2.27931
2.29117
2.29368
2.24186
4.08826
4.06769
4.04717
4.02669
4.00623
3.98576
3.96527
3.94473
3.92414
3.90348
3.88274
3.8619
3.84094
3.81986
3.79864
3.77725
3.75568
3.7339
3.7119
3.68967
3.66718
3.64444
3.62142
3.59813
3.57456
3.55073
3.52664
3.5023
3.47771
3.45288
3.42784
3.40257
3.37709
3.3514
3.32551
3.29942
3.27314
3.24668
3.22003
3.19323
3.16629
3.13923
3.11209
3.08491
3.05772
3.03059
3.00356
2.97669
2.95003
2.92363
2.89753
2.87176
2.84637
2.82134
2.79671
2.77244
2.74852
2.72491
2.70157
2.67844
2.65547
2.63258
2.60971
2.58679
2.56374
2.5405
2.517
2.49321
2.46905
2.44451
2.41955
2.39416
2.36832
2.34205
2.31538
2.28833
2.26097
2.23336
2.2056
2.17782
2.15017
2.12285
2.09609
2.0702
2.04556
2.0226
2.00186
1.98392
1.96941
1.95895
1.95302
1.95183
1.95519
1.96229
1.97161
1.98086
1.98743
1.98677
1.98271
1.94349
4.04102
4.01786
3.99479
3.97179
3.94886
3.92598
3.90314
3.88034
3.85757
3.83482
3.81209
3.78936
3.76662
3.74388
3.7211
3.69829
3.67543
3.65249
3.62948
3.60637
3.58315
3.55981
3.53633
3.51271
3.48894
3.46502
3.44095
3.41673
3.39237
3.36787
3.34324
3.31849
3.29364
3.26869
3.24366
3.21857
3.19343
3.16826
3.14309
3.11793
3.0928
3.06774
3.04277
3.01792
2.99321
2.96868
2.94436
2.92027
2.89643
2.87286
2.84957
2.82658
2.80387
2.78145
2.75928
2.73734
2.71561
2.69403
2.67255
2.65113
2.62969
2.60819
2.58655
2.56472
2.54263
2.52024
2.49747
2.47429
2.45066
2.42655
2.40193
2.37678
2.35109
2.32489
2.29816
2.27095
2.24329
2.21522
2.1868
2.15812
2.12928
2.10038
2.07158
2.04305
2.01501
1.98772
1.96149
1.93668
1.91368
1.89291
1.87472
1.85938
1.84695
1.83718
1.82942
1.82252
1.8152
1.80456
1.79411
1.75897
4.0188
3.99403
3.96933
3.94469
3.92011
3.8956
3.87114
3.84674
3.82239
3.79809
3.77384
3.74964
3.72548
3.70137
3.67729
3.65325
3.62923
3.60523
3.58123
3.55724
3.53323
3.50921
3.48516
3.46108
3.43696
3.4128
3.38859
3.36435
3.34006
3.31574
3.29139
3.26703
3.24265
3.21827
3.19391
3.16957
3.14528
3.12106
3.09691
3.07287
3.04896
3.02518
3.00157
2.97814
2.95492
2.93191
2.90915
2.88663
2.86436
2.84235
2.8206
2.7991
2.77783
2.75678
2.73591
2.71519
2.69459
2.67405
2.65353
2.63297
2.61232
2.59152
2.57051
2.54924
2.52764
2.50568
2.48329
2.46045
2.43711
2.41324
2.38882
2.36384
2.33829
2.31216
2.28548
2.25826
2.23052
2.2023
2.17365
2.14462
2.11528
2.08571
2.05601
2.02627
1.99665
1.9673
1.9384
1.91017
1.88286
1.85674
1.83204
1.80901
1.78776
1.76829
1.75038
1.73353
1.71719
1.69951
1.68402
1.64914
4.00913
3.98347
3.95785
3.93226
3.90672
3.88122
3.85576
3.83034
3.80497
3.77965
3.75439
3.72918
3.70402
3.67892
3.65389
3.62891
3.60399
3.57913
3.55432
3.52956
3.50484
3.48017
3.45555
3.43096
3.4064
3.38189
3.35741
3.33296
3.30856
3.28421
3.2599
3.23565
3.21147
3.18737
3.16335
3.13943
3.11562
3.09194
3.0684
3.04502
3.02181
2.99878
2.97596
2.95336
2.93098
2.90883
2.88693
2.86528
2.84388
2.82272
2.80178
2.78107
2.76056
2.74021
2.72001
2.69991
2.67987
2.65985
2.6398
2.61967
2.5994
2.57894
2.55824
2.53724
2.51589
2.49414
2.47195
2.44929
2.42611
2.40239
2.37811
2.35325
2.3278
2.30178
2.27517
2.24801
2.22031
2.1921
2.16342
2.13431
2.10483
2.07503
2.04499
2.01479
1.98451
1.95427
1.92419
1.8944
1.86507
1.83636
1.80845
1.78151
1.75566
1.73099
1.70747
1.6849
1.66317
1.64098
1.62203
1.58612
4.00519
3.97909
3.95301
3.92693
3.90088
3.87484
3.84883
3.82284
3.79689
3.77097
3.74509
3.71926
3.69348
3.66775
3.64208
3.61647
3.59093
3.56545
3.54004
3.51471
3.48944
3.46425
3.43913
3.41409
3.38913
3.36424
3.33944
3.31472
3.2901
3.26557
3.24115
3.21684
3.19265
3.16858
3.14466
3.12088
3.09726
3.0738
3.05054
3.02746
3.00459
2.98193
2.9595
2.9373
2.91535
2.89363
2.87217
2.85095
2.82997
2.80921
2.78868
2.76834
2.74818
2.72816
2.70826
2.68844
2.66865
2.64885
2.629
2.60905
2.58894
2.56862
2.54804
2.52716
2.50591
2.48427
2.46218
2.4396
2.41652
2.39289
2.3687
2.34394
2.31859
2.29266
2.26615
2.23908
2.21147
2.18334
2.15473
2.12567
2.09621
2.06641
2.03632
2.006
1.97553
1.945
1.91447
1.88407
1.8539
1.82407
1.79471
1.76595
1.7379
1.71066
1.68427
1.65868
1.63398
1.60918
1.58811
1.55107
4.00362
3.97732
3.95102
3.92472
3.89841
3.87212
3.84583
3.81955
3.79329
3.76705
3.74084
3.71466
3.68852
3.66242
3.63638
3.61038
3.58445
3.55858
3.53278
3.50706
3.48141
3.45584
3.43035
3.40496
3.37966
3.35446
3.32937
3.30439
3.27952
3.25478
3.23018
3.20571
3.1814
3.15724
3.13325
3.10944
3.08582
3.06239
3.03917
3.01617
2.99339
2.97085
2.94855
2.92649
2.90468
2.88313
2.86182
2.84075
2.81992
2.79931
2.77891
2.7587
2.73865
2.71874
2.69892
2.67917
2.65945
2.63971
2.6199
2.59998
2.5799
2.55961
2.53906
2.5182
2.49698
2.47537
2.45332
2.43079
2.40776
2.38419
2.36007
2.33539
2.31013
2.28429
2.25788
2.23092
2.20341
2.1754
2.1469
2.11795
2.0886
2.05889
2.02888
1.99862
1.96818
1.93762
1.90703
1.87647
1.84603
1.81581
1.78591
1.75642
1.72744
1.69906
1.67135
1.64432
1.61815
1.59198
1.56976
1.53191
4.00292
3.97654
3.95014
3.92374
3.89732
3.8709
3.84448
3.81807
3.79166
3.76526
3.73888
3.71252
3.68619
3.6599
3.63364
3.60743
3.58127
3.55516
3.52912
3.50315
3.47725
3.45143
3.42569
3.40005
3.37451
3.34907
3.32374
3.29853
3.27345
3.24851
3.22371
3.19907
3.17459
3.15029
3.12617
3.10224
3.07852
3.055
3.03171
3.00865
2.98583
2.96325
2.94092
2.91884
2.89701
2.87544
2.85412
2.83304
2.8122
2.79158
2.77116
2.75092
2.73084
2.71089
2.69104
2.67125
2.65148
2.63169
2.61183
2.59187
2.57175
2.55142
2.53083
2.50995
2.48872
2.4671
2.44505
2.42254
2.39954
2.37601
2.35195
2.32733
2.30215
2.2764
2.25009
2.22324
2.19585
2.16796
2.13959
2.11078
2.08157
2.05201
2.02214
1.99202
1.9617
1.93126
1.90075
1.87025
1.83983
1.80958
1.77956
1.74988
1.7206
1.69182
1.66361
1.63599
1.60919
1.58241
1.55963
1.52134
4.00253
3.97611
3.94967
3.92321
3.89674
3.87026
3.84378
3.8173
3.79082
3.76434
3.73787
3.71142
3.68499
3.65859
3.63222
3.60588
3.57959
3.55335
3.52716
3.50104
3.47498
3.449
3.4231
3.39728
3.37156
3.34595
3.32045
3.29506
3.26981
3.24469
3.21973
3.19492
3.17027
3.14581
3.12154
3.09746
3.07359
3.04994
3.02652
3.00333
2.98039
2.95769
2.93524
2.91306
2.89112
2.86944
2.84802
2.82683
2.80588
2.78515
2.76462
2.74428
2.72409
2.70403
2.68407
2.66417
2.64429
2.6244
2.60444
2.58439
2.56418
2.54377
2.52312
2.50218
2.48091
2.45926
2.4372
2.41469
2.3917
2.36821
2.34419
2.31963
2.29452
2.26886
2.24265
2.21591
2.18864
2.16089
2.13266
2.104
2.07495
2.04554
2.01584
1.98589
1.95575
1.92548
1.89514
1.86479
1.83452
1.80438
1.77445
1.74482
1.71555
1.68671
1.6584
1.63063
1.60365
1.57665
1.55368
1.5152
4.00224
3.97579
3.94932
3.92284
3.89634
3.86983
3.84331
3.81679
3.79026
3.76374
3.73723
3.71073
3.68424
3.65777
3.63133
3.60493
3.57855
3.55223
3.52595
3.49973
3.47357
3.44747
3.42146
3.39552
3.36968
3.34394
3.3183
3.29278
3.26738
3.24213
3.21701
3.19206
3.16726
3.14265
3.11822
3.094
3.06998
3.04617
3.0226
2.99926
2.97616
2.95331
2.93071
2.90837
2.88628
2.86445
2.84287
2.82153
2.80043
2.77954
2.75886
2.73836
2.71802
2.69781
2.67769
2.65765
2.63763
2.61761
2.59753
2.57735
2.55703
2.53653
2.5158
2.49479
2.47346
2.45178
2.42969
2.40717
2.38419
2.36072
2.33674
2.31223
2.28719
2.26161
2.2355
2.20887
2.18173
2.1541
2.12602
2.09751
2.06863
2.0394
2.00987
1.98011
1.95016
1.92008
1.88994
1.85979
1.82971
1.79976
1.77001
1.74053
1.7114
1.68268
1.65445
1.62673
1.59976
1.57276
1.54976
1.51126
4.00198
3.97551
3.94903
3.92252
3.896
3.86946
3.84292
3.81637
3.78982
3.76327
3.73672
3.71018
3.68365
3.65715
3.63066
3.6042
3.57777
3.55139
3.52504
3.49875
3.47251
3.44634
3.42024
3.39421
3.36828
3.34243
3.31669
3.29106
3.26555
3.24017
3.21493
3.18984
3.16492
3.14016
3.1156
3.09122
3.06705
3.0431
3.01937
2.99587
2.97261
2.9496
2.92683
2.90432
2.88207
2.86006
2.83831
2.8168
2.79552
2.77446
2.7536
2.73292
2.71241
2.69202
2.67175
2.65154
2.63137
2.61119
2.59097
2.57067
2.55023
2.52963
2.5088
2.48771
2.46632
2.44459
2.42247
2.39994
2.37696
2.35351
2.32956
2.30511
2.28014
2.25464
2.22862
2.2021
2.17508
2.14759
2.11965
2.0913
2.06258
2.03353
2.00419
1.97462
1.94487
1.91499
1.88506
1.85513
1.82526
1.79552
1.76598
1.7367
1.70776
1.67922
1.65114
1.62356
1.5967
1.56978
1.54684
1.50838
4.00174
3.97526
3.94875
3.92223
3.89569
3.86913
3.84257
3.81599
3.78942
3.76284
3.73626
3.7097
3.68314
3.65659
3.63007
3.60357
3.5771
3.55066
3.52426
3.49791
3.47162
3.44538
3.4192
3.39311
3.36709
3.34116
3.31532
3.2896
3.26399
3.2385
3.21315
3.18795
3.1629
3.13803
3.11333
3.08882
3.06451
3.04041
3.01652
2.99287
2.96945
2.94628
2.92335
2.90067
2.87824
2.85606
2.83413
2.81243
2.79097
2.76973
2.74869
2.72783
2.70713
2.68658
2.66613
2.64575
2.62542
2.60509
2.58473
2.56429
2.54373
2.52301
2.50209
2.48092
2.45947
2.43768
2.41553
2.39298
2.37001
2.34657
2.32266
2.29825
2.27335
2.24793
2.22201
2.1956
2.1687
2.14134
2.11355
2.08536
2.0568
2.02793
1.99878
1.9694
1.93985
1.91019
1.88047
1.85075
1.82111
1.79159
1.76227
1.73321
1.70447
1.67612
1.64823
1.6208
1.59408
1.56728
1.54441
1.50602
4.00151
3.97501
3.94849
3.92195
3.89539
3.86882
3.84223
3.81564
3.78904
3.76244
3.73584
3.70924
3.68265
3.65608
3.62952
3.60298
3.57647
3.54999
3.52355
3.49715
3.47079
3.4445
3.41826
3.39209
3.366
3.34
3.31408
3.28827
3.26257
3.23699
3.21154
3.18623
3.16107
3.13608
3.11126
3.08662
3.06218
3.03794
3.01391
2.99011
2.96654
2.94321
2.92012
2.89727
2.87467
2.85232
2.83021
2.80834
2.7867
2.76527
2.74405
2.72301
2.70214
2.68141
2.66079
2.64024
2.61975
2.59927
2.57876
2.55819
2.53751
2.51668
2.49566
2.47441
2.45289
2.43105
2.40887
2.38631
2.36333
2.33991
2.31603
2.29168
2.26684
2.24151
2.21568
2.18938
2.1626
2.13538
2.10774
2.07971
2.05132
2.02263
1.99366
1.96448
1.93514
1.90568
1.87618
1.84668
1.81725
1.78795
1.75885
1.73
1.70147
1.67331
1.64559
1.61833
1.59174
1.56505
1.54227
1.50392
4.0013
3.97479
3.94825
3.92169
3.89511
3.86852
3.84192
3.8153
3.78868
3.76206
3.73543
3.70881
3.68219
3.65559
3.629
3.60242
3.57587
3.54935
3.52287
3.49642
3.47002
3.44367
3.41737
3.39114
3.36499
3.33891
3.31292
3.28703
3.26125
3.23558
3.21003
3.18463
3.15937
3.13426
3.10933
3.08457
3.06
3.03563
3.01147
2.98753
2.96381
2.94033
2.91708
2.89408
2.87131
2.84879
2.82652
2.80447
2.78266
2.76106
2.73966
2.71845
2.6974
2.67649
2.6557
2.635
2.61435
2.59371
2.57307
2.55236
2.53156
2.51062
2.48951
2.46818
2.44659
2.42471
2.4025
2.37992
2.35695
2.33355
2.30971
2.28541
2.26064
2.23539
2.20967
2.18348
2.15684
2.12976
2.10227
2.0744
2.04619
2.01767
1.9889
1.95991
1.93077
1.90152
1.87223
1.84294
1.81372
1.78464
1.75574
1.72709
1.69875
1.67077
1.64322
1.6161
1.58964
1.56304
1.54031
1.50198
4.0011
3.97457
3.94802
3.92145
3.89485
3.86824
3.84162
3.81499
3.78834
3.7617
3.73505
3.7084
3.68176
3.65512
3.6285
3.60189
3.57531
3.54875
3.52222
3.49573
3.46928
3.44288
3.41653
3.39024
3.36403
3.33788
3.31183
3.28586
3.26
3.23425
3.20861
3.18311
3.15776
3.13255
3.10751
3.08264
3.05795
3.03346
3.00917
2.98509
2.96124
2.93761
2.91422
2.89106
2.86814
2.84546
2.82302
2.80081
2.77883
2.75706
2.73549
2.71411
2.6929
2.67183
2.65087
2.63001
2.60921
2.58843
2.56765
2.54682
2.5259
2.50486
2.48366
2.46226
2.44061
2.41869
2.39645
2.37387
2.3509
2.32754