/*--------------------------------*- C++ -*----------------------------------*\
| =========                 |                                                 |
| \\      /  F ield         | OpenFOAM: The Open Source CFD Toolbox           |
|  \\    /   O peration     | Version:  2.1.1                                 |
|   \\  /    A nd           | Web:      www.OpenFOAM.org                      |
|    \\/     M anipulation  |                                                 |
\*---------------------------------------------------------------------------*/
FoamFile
{
    version     2.0;
    format      ascii;
    class       volScalarField;
    location    "0.175";
    object      k;
}
// * * * * * * * * * * * * * * * * * * * * * * * * * * * * * * * * * * * * * //

dimensions      [0 2 -2 0 0 0 0];

internalField   nonuniform List<scalar> 
6820
(
0.288909
0.351398
0.415005
0.477466
0.536859
0.591556
0.640368
0.682623
0.718114
0.747015
0.76977
0.786995
0.799392
0.807678
0.812544
0.814625
0.814483
0.812605
0.809403
0.805218
0.80033
0.794966
0.789305
0.783489
0.777628
0.771804
0.766077
0.760504
0.755049
0.750035
0.743973
0.744023
0.715613
0.265532
0.269396
0.270523
0.271341
0.272559
0.274216
0.276227
0.27848
0.280862
0.283288
0.285703
0.288076
0.290398
0.292673
0.294916
0.297146
0.299382
0.301643
0.303945
0.306301
0.30872
0.311208
0.31377
0.316406
0.319117
0.321903
0.324765
0.327711
0.330754
0.333954
0.337325
0.341371
0.345531
0.262038
0.264253
0.263596
0.261557
0.259
0.256318
0.253627
0.250938
0.24824
0.245524
0.242794
0.240061
0.237345
0.234668
0.232052
0.229518
0.227085
0.224769
0.222582
0.220533
0.218629
0.216873
0.215267
0.213812
0.212504
0.211341
0.210321
0.209439
0.208693
0.208084
0.2076
0.207271
0.207038
0.259885
0.260272
0.259797
0.258535
0.256829
0.254891
0.252833
0.250709
0.248547
0.246358
0.244152
0.241934
0.239713
0.237494
0.235286
0.233096
0.230931
0.228799
0.226706
0.224657
0.222659
0.220714
0.218827
0.216999
0.215234
0.213532
0.211893
0.210319
0.208807
0.207358
0.205969
0.204641
0.203364
0.259299
0.258404
0.2576
0.256567
0.255295
0.25385
0.252292
0.250662
0.248984
0.247277
0.245551
0.243815
0.242074
0.240335
0.238601
0.236877
0.235166
0.233472
0.231798
0.230148
0.228523
0.226926
0.22536
0.223825
0.222323
0.220855
0.219423
0.218026
0.216665
0.215341
0.214052
0.2128
0.211584
0.259224
0.257848
0.256623
0.255437
0.254227
0.25297
0.251663
0.250313
0.248929
0.247522
0.246101
0.24467
0.243237
0.241805
0.240377
0.238958
0.237549
0.236153
0.234771
0.233407
0.23206
0.230734
0.229428
0.228144
0.226883
0.225646
0.224433
0.223244
0.222081
0.220943
0.21983
0.218745
0.217687
0.259217
0.257715
0.256309
0.25498
0.253698
0.252442
0.251196
0.249951
0.248704
0.247455
0.246205
0.244955
0.24371
0.242469
0.241236
0.240013
0.2388
0.2376
0.236414
0.235242
0.234086
0.232947
0.231825
0.230721
0.229635
0.228569
0.227521
0.226494
0.225486
0.224499
0.223532
0.222587
0.221663
0.259218
0.25769
0.256225
0.254822
0.253477
0.252181
0.250924
0.249696
0.248492
0.247306
0.246137
0.244981
0.243839
0.24271
0.241595
0.240493
0.239405
0.238332
0.237273
0.23623
0.235203
0.234191
0.233196
0.232217
0.231256
0.230311
0.229383
0.228473
0.227581
0.226706
0.225849
0.22501
0.224189
0.259218
0.257686
0.256207
0.25478
0.253405
0.25208
0.250799
0.24956
0.248357
0.247185
0.246042
0.244925
0.24383
0.242757
0.241705
0.240671
0.239657
0.23866
0.237681
0.236719
0.235775
0.234848
0.233937
0.233044
0.232167
0.231307
0.230464
0.229637
0.228827
0.228033
0.227256
0.226495
0.225751
0.259218
0.257686
0.256203
0.254769
0.253384
0.252045
0.250751
0.2495
0.248288
0.247114
0.245974
0.244867
0.243788
0.242738
0.241713
0.240712
0.239735
0.238779
0.237845
0.236931
0.236036
0.235161
0.234304
0.233465
0.232644
0.23184
0.231052
0.230282
0.229528
0.228791
0.22807
0.227364
0.226675
0.259218
0.257686
0.256202
0.254767
0.253378
0.252035
0.250735
0.249477
0.248259
0.24708
0.245937
0.244829
0.243753
0.242709
0.241693
0.240705
0.239744
0.238807
0.237894
0.237004
0.236136
0.235289
0.234462
0.233655
0.232867
0.232097
0.231345
0.23061
0.229893
0.229192
0.228507
0.227839
0.227186
0.259218
0.257685
0.256201
0.254766
0.253376
0.252031
0.250729
0.249469
0.248248
0.247066
0.24592
0.24481
0.243733
0.242688
0.241674
0.240689
0.239733
0.238803
0.237899
0.237019
0.236163
0.235329
0.234517
0.233726
0.232956
0.232204
0.231472
0.230758
0.230062
0.229383
0.228721
0.228075
0.227445
0.259218
0.257685
0.256201
0.254765
0.253375
0.25203
0.250727
0.249465
0.248243
0.247059
0.245912
0.2448
0.243722
0.242676
0.241661
0.240677
0.239721
0.238793
0.237891
0.237014
0.236163
0.235334
0.234529
0.233745
0.232983
0.23224
0.231518
0.230814
0.230129
0.229461
0.228811
0.228178
0.22756
0.259218
0.257685
0.256201
0.254764
0.253374
0.252028
0.250725
0.249463
0.248241
0.247056
0.245908
0.244795
0.243716
0.242669
0.241654
0.240669
0.239712
0.238784
0.237882
0.237007
0.236156
0.235329
0.234526
0.233744
0.232985
0.232246
0.231527
0.230828
0.230148
0.229486
0.228841
0.228214
0.227603
0.259218
0.257685
0.2562
0.254764
0.253374
0.252028
0.250724
0.249462
0.248239
0.247054
0.245905
0.244792
0.243712
0.242665
0.241649
0.240663
0.239706
0.238777
0.237875
0.237
0.236149
0.235322
0.234519
0.233738
0.23298
0.232242
0.231524
0.230827
0.230148
0.229488
0.228846
0.228221
0.227612
0.259218
0.257685
0.2562
0.254764
0.253373
0.252027
0.250723
0.249461
0.248237
0.247052
0.245903
0.244789
0.243709
0.242661
0.241645
0.240659
0.239702
0.238772
0.23787
0.236994
0.236143
0.235316
0.234512
0.233732
0.232973
0.232235
0.231518
0.23082
0.230142
0.229482
0.228841
0.228216
0.227609
0.259218
0.257685
0.2562
0.254763
0.253373
0.252026
0.250722
0.24946
0.248236
0.24705
0.245901
0.244787
0.243707
0.242659
0.241642
0.240655
0.239698
0.238768
0.237865
0.236989
0.236137
0.23531
0.234506
0.233725
0.232966
0.232228
0.231511
0.230813
0.230135
0.229475
0.228833
0.228209
0.227601
0.259218
0.257685
0.2562
0.254763
0.253372
0.252026
0.250722
0.249459
0.248235
0.247049
0.2459
0.244785
0.243704
0.242656
0.241639
0.240652
0.239694
0.238764
0.237861
0.236984
0.236133
0.235305
0.234501
0.23372
0.23296
0.232222
0.231504
0.230806
0.230127
0.229467
0.228825
0.2282
0.227592
0.259218
0.257684
0.2562
0.254763
0.253372
0.252025
0.250721
0.249458
0.248234
0.247048
0.245898
0.244783
0.243702
0.242654
0.241636
0.240649
0.239691
0.238761
0.237858
0.23698
0.236128
0.2353
0.234496
0.233714
0.232955
0.232216
0.231498
0.2308
0.23012
0.22946
0.228817
0.228192
0.227584
0.259218
0.257684
0.2562
0.254763
0.253371
0.252025
0.25072
0.249457
0.248233
0.247047
0.245897
0.244782
0.243701
0.242652
0.241634
0.240647
0.239688
0.238758
0.237854
0.236977
0.236124
0.235296
0.234492
0.23371
0.232949
0.23221
0.231492
0.230793
0.230114
0.229453
0.22881
0.228184
0.227576
0.259218
0.257684
0.256199
0.254762
0.253371
0.252024
0.25072
0.249456
0.248232
0.247046
0.245895
0.24478
0.243699
0.24265
0.241632
0.240644
0.239686
0.238755
0.237851
0.236973
0.236121
0.235292
0.234487
0.233705
0.232945
0.232205
0.231486
0.230787
0.230108
0.229446
0.228803
0.228177
0.227568
0.259218
0.257684
0.256199
0.254762
0.253371
0.252024
0.250719
0.249456
0.248231
0.247045
0.245894
0.244779
0.243697
0.242648
0.24163
0.240642
0.239683
0.238752
0.237848
0.23697
0.236117
0.235289
0.234483
0.233701
0.23294
0.2322
0.231481
0.230782
0.230102
0.22944
0.228796
0.22817
0.22756
0.259218
0.257684
0.256199
0.254762
0.253371
0.252024
0.250719
0.249455
0.248231
0.247044
0.245893
0.244778
0.243696
0.242647
0.241628
0.24064
0.239681
0.23875
0.237846
0.236967
0.236114
0.235285
0.23448
0.233697
0.232936
0.232196
0.231476
0.230777
0.230096
0.229434
0.22879
0.228163
0.227554
0.259218
0.257684
0.256199
0.254762
0.253371
0.252023
0.250719
0.249455
0.24823
0.247043
0.245893
0.244777
0.243695
0.242645
0.241627
0.240639
0.239679
0.238748
0.237843
0.236965
0.236111
0.235282
0.234476
0.233693
0.232932
0.232192
0.231472
0.230772
0.230091
0.229429
0.228784
0.228157
0.227547
0.259218
0.257684
0.256199
0.254762
0.25337
0.252023
0.250718
0.249454
0.24823
0.247043
0.245892
0.244776
0.243694
0.242644
0.241626
0.240637
0.239677
0.238746
0.237841
0.236962
0.236109
0.235279
0.234473
0.23369
0.232928
0.232188
0.231468
0.230768
0.230086
0.229424
0.228779
0.228152
0.227541
0.259218
0.257684
0.256199
0.254762
0.25337
0.252023
0.250718
0.249454
0.248229
0.247042
0.245891
0.244775
0.243693
0.242643
0.241624
0.240636
0.239676
0.238744
0.237839
0.23696
0.236106
0.235277
0.234471
0.233687
0.232925
0.232184
0.231464
0.230764
0.230082
0.229419
0.228774
0.228146
0.227536
0.259218
0.257684
0.256199
0.254762
0.25337
0.252023
0.250718
0.249454
0.248229
0.247042
0.245891
0.244775
0.243692
0.242642
0.241623
0.240634
0.239675
0.238743
0.237837
0.236958
0.236104
0.235274
0.234468
0.233684
0.232922
0.232181
0.231461
0.23076
0.230078
0.229415
0.22877
0.228142
0.22753
0.259218
0.257684
0.256199
0.254762
0.25337
0.252023
0.250718
0.249454
0.248229
0.247041
0.24589
0.244774
0.243692
0.242642
0.241623
0.240634
0.239674
0.238741
0.237836
0.236957
0.236103
0.235273
0.234466
0.233682
0.23292
0.232179
0.231458
0.230757
0.230075
0.229411
0.228766
0.228138
0.227526
0.259218
0.257684
0.256199
0.254762
0.25337
0.252023
0.250718
0.249453
0.248228
0.247041
0.24589
0.244774
0.243691
0.242641
0.241622
0.240633
0.239673
0.23874
0.237835
0.236955
0.236101
0.235271
0.234464
0.23368
0.232918
0.232176
0.231455
0.230754
0.230072
0.229408
0.228762
0.228134
0.227522
0.259218
0.257684
0.256199
0.254762
0.25337
0.252023
0.250718
0.249454
0.248229
0.247042
0.24589
0.244774
0.243692
0.242641
0.241622
0.240633
0.239673
0.23874
0.237835
0.236955
0.236101
0.235271
0.234464
0.233679
0.232917
0.232175
0.231454
0.230752
0.23007
0.229406
0.22876
0.228131
0.227519
0.259218
0.257684
0.256199
0.254762
0.25337
0.252023
0.250718
0.249453
0.248228
0.247041
0.24589
0.244774
0.243691
0.242641
0.241622
0.240633
0.239672
0.23874
0.237834
0.236955
0.2361
0.23527
0.234463
0.233679
0.232916
0.232174
0.231453
0.230751
0.230069
0.229405
0.228759
0.22813
0.227518
0.259218
0.257684
0.256199
0.254762
0.253371
0.252024
0.25072
0.249456
0.248231
0.247044
0.245894
0.244778
0.243695
0.242645
0.241626
0.240636
0.239676
0.238744
0.237838
0.236958
0.236104
0.235273
0.234466
0.233681
0.232918
0.232176
0.231455
0.230753
0.23007
0.229406
0.228759
0.22813
0.227517
0.259218
0.257685
0.2562
0.254764
0.253373
0.252026
0.250721
0.249457
0.248232
0.247046
0.245895
0.244779
0.243697
0.242647
0.241628
0.240639
0.239679
0.238747
0.237841
0.236962
0.236107
0.235276
0.234469
0.233684
0.232921
0.232179
0.231457
0.230754
0.230071
0.229406
0.228758
0.228128
0.227515
0.259218
0.257685
0.256201
0.254766
0.253378
0.252033
0.250731
0.249469
0.248246
0.24706
0.24591
0.244795
0.243713
0.242663
0.241644
0.240654
0.239694
0.23876
0.237854
0.236973
0.236117
0.235285
0.234476
0.233689
0.232924
0.232179
0.231455
0.230749
0.230063
0.229395
0.228744
0.228111
0.227493
0.259219
0.257689
0.25621
0.254777
0.25339
0.252045
0.250743
0.249482
0.248259
0.247074
0.245924
0.244809
0.243726
0.242676
0.241655
0.240664
0.239701
0.238765
0.237855
0.23697
0.236109
0.235271
0.234456
0.233663
0.23289
0.232138
0.231405
0.230691
0.229996
0.229318
0.228658
0.228014
0.227386
0.25922
0.257694
0.256221
0.254799
0.253423
0.252089
0.250795
0.249539
0.248318
0.247132
0.245978
0.244857
0.243767
0.242706
0.241674
0.24067
0.239691
0.238739
0.237811
0.236907
0.236027
0.235168
0.234331
0.233515
0.23272
0.231944
0.231187
0.230449
0.229729
0.229026
0.22834
0.22767
0.227017
0.259229
0.257738
0.256292
0.254882
0.253508
0.252172
0.250871
0.249603
0.248368
0.247162
0.245985
0.244837
0.243716
0.242621
0.241553
0.240509
0.23949
0.238496
0.237524
0.236576
0.235649
0.234745
0.233862
0.232999
0.232156
0.231333
0.230529
0.229743
0.228976
0.228226
0.227494
0.226778
0.226078
0.259265
0.257822
0.256453
0.255125
0.253805
0.252483
0.251164
0.249855
0.248562
0.247291
0.246046
0.244829
0.243641
0.242481
0.241351
0.24025
0.239175
0.238128
0.237107
0.236111
0.235139
0.23419
0.233264
0.23236
0.231477
0.230615
0.229773
0.228951
0.228148
0.227363
0.226596
0.225847
0.225115
0.259599
0.258632
0.257578
0.256541
0.255587
0.254713
0.253904
0.25315
0.252442
0.25178
0.251161
0.250585
0.250051
0.249559
0.249106
0.248692
0.248316
0.247974
0.247666
0.24739
0.247144
0.246927
0.246735
0.246569
0.246426
0.246305
0.246205
0.246123
0.24606
0.246013
0.245982
0.245966
0.245963
0.266719
0.280569
0.294241
0.307622
0.320668
0.333362
0.345693
0.357649
0.369225
0.380413
0.391212
0.401621
0.41164
0.421273
0.430525
0.439401
0.447909
0.456056
0.463852
0.471306
0.478427
0.485227
0.491716
0.497904
0.503803
0.509423
0.514776
0.519871
0.52472
0.529332
0.533718
0.537887
0.541853
0.843929
1.01372
1.18327
1.35364
1.52332
1.68417
1.82581
1.94054
2.02542
2.08241
2.11684
2.13533
2.14403
2.14757
2.14879
2.14911
2.14897
2.14844
2.1475
2.14625
2.14494
2.14386
2.14331
2.14348
2.14445
2.14616
2.14846
2.15112
2.15386
2.15636
2.1583
2.15933
2.15909
2.15722
2.15335
2.1471
2.1381
2.12599
2.1104
2.09101
2.06751
2.03962
2.00713
1.96987
1.92772
1.88066
1.82874
1.77211
1.71101
1.6458
1.57692
1.50493
1.43049
1.35433
1.27727
1.20016
1.12388
1.0493
0.97728
0.908573
0.843851
0.783657
0.72839
0.678294
0.633465
0.593857
0.559309
0.529571
0.504332
0.483256
0.465999
0.45224
0.441685
0.434084
0.42923
0.426957
0.42714
0.429687
0.434525
0.441591
0.45082
0.462124
0.475378
0.490404
0.506957
0.524711
0.543261
0.562117
0.58072
0.598453
0.614662
0.62868
0.639852
0.647548
0.651215
0.650328
0.644623
0.633254
0.61919
0.58478
0.354437
0.368153
0.38846
0.418352
0.460563
0.517485
0.590663
0.680016
0.783481
0.89708
1.01544
1.13263
1.24305
1.34229
1.42762
1.49817
1.55465
1.59882
1.63303
1.65961
1.68063
1.69766
1.71183
1.72383
1.73405
1.7427
1.74987
1.75559
1.75984
1.76258
1.76372
1.76313
1.76063
1.75602
1.74906
1.73951
1.7271
1.71158
1.69269
1.67021
1.64395
1.61375
1.57951
1.54118
1.49877
1.45237
1.40216
1.34841
1.29148
1.2318
1.16993
1.10648
1.04215
0.977681
0.913851
0.851435
0.791181
0.733776
0.679816
0.629782
0.584016
0.542713
0.505926
0.473577
0.445478
0.421361
0.400908
0.383782
0.369648
0.358194
0.349145
0.342267
0.337374
0.334324
0.333021
0.333406
0.335459
0.339184
0.344612
0.351784
0.360739
0.371504
0.384073
0.398386
0.414316
0.431647
0.450064
0.469148
0.488383
0.50717
0.524845
0.540711
0.554067
0.564237
0.570609
0.57262
0.56995
0.561788
0.55082
0.521365
0.206693
0.206485
0.206907
0.208364
0.211267
0.21616
0.223578
0.234362
0.249636
0.270595
0.298404
0.334027
0.378029
0.430387
0.490377
0.556567
0.626936
0.699099
0.770594
0.839179
0.903062
0.961033
1.01249
1.05734
1.09588
1.12864
1.15622
1.1792
1.19808
1.21324
1.22495
1.23338
1.2386
1.24063
1.23944
1.23499
1.2272
1.21601
1.20135
1.18317
1.16146
1.13623
1.10754
1.07548
1.04025
1.00205
0.961213
0.9181
0.873161
0.826909
0.779911
0.732772
0.686119
0.640573
0.596727
0.555115
0.516187
0.480291
0.447658
0.418393
0.39249
0.369838
0.350248
0.333478
0.319258
0.307312
0.297375
0.289205
0.282592
0.27736
0.273367
0.270507
0.268705
0.267919
0.268133
0.269362
0.271643
0.275038
0.279629
0.285512
0.292791
0.301569
0.31193
0.323924
0.337542
0.352698
0.369203
0.386752
0.404922
0.423172
0.440871
0.457318
0.471784
0.483546
0.491933
0.496336
0.496364
0.491231
0.48327
0.458983
0.201945
0.200428
0.199009
0.197691
0.196508
0.195524
0.194824
0.194527
0.194727
0.1956
0.197371
0.200321
0.204779
0.211122
0.219759
0.231115
0.245582
0.263477
0.284979
0.310075
0.338529
0.369874
0.403441
0.43841
0.473884
0.508959
0.542796
0.574671
0.603999
0.63035
0.653433
0.673075
0.689195
0.701771
0.710824
0.716395
0.718541
0.717332
0.712849
0.705191
0.69448
0.680867
0.664537
0.645716
0.62467
0.601711
0.577192
0.551504
0.525066
0.498315
0.47169
0.445616
0.420485
0.396642
0.374361
0.353847
0.335222
0.318529
0.303743
0.290784
0.279529
0.269829
0.261527
0.254465
0.248494
0.243481
0.239307
0.235875
0.233104
0.230932
0.229315
0.228225
0.22765
0.227595
0.228082
0.229147
0.230844
0.233245
0.236438
0.240529
0.245635
0.251883
0.259401
0.268301
0.278666
0.290524
0.303821
0.318399
0.333974
0.350132
0.36633
0.381925
0.396205
0.408432
0.417895
0.42394
0.426101
0.423613
0.418397
0.399252
0.210217
0.208698
0.207202
0.205722
0.20426
0.202826
0.201436
0.200114
0.198879
0.197756
0.196779
0.195991
0.195447
0.195209
0.195352
0.195958
0.197121
0.198943
0.201528
0.204985
0.209417
0.214913
0.22154
0.22933
0.238272
0.248297
0.259276
0.271021
0.283285
0.29578
0.308192
0.320198
0.331484
0.34176
0.350776
0.358322
0.364242
0.368427
0.37082
0.371412
0.370239
0.367381
0.362955
0.357114
0.350041
0.341943
0.333043
0.323575
0.313772
0.303858
0.294041
0.284502
0.27539
0.266821
0.258874
0.251594
0.244998
0.239078
0.233806
0.229143
0.225042
0.221452
0.218322
0.215603
0.213252
0.21123
0.209503
0.208045
0.206836
0.205862
0.205116
0.204601
0.204324
0.204303
0.204564
0.205142
0.206086
0.207455
0.209321
0.211772
0.214909
0.218848
0.223711
0.229626
0.23671
0.245056
0.254709
0.265638
0.277714
0.29068
0.304149
0.317603
0.330419
0.34191
0.351369
0.358128
0.361666
0.361238
0.358325
0.344016
0.216486
0.215126
0.213764
0.212404
0.211046
0.209692
0.208343
0.207004
0.205681
0.204382
0.203116
0.201894
0.20073
0.19964
0.198643
0.197761
0.197015
0.196431
0.196034
0.195851
0.195907
0.196228
0.196836
0.197753
0.198994
0.200566
0.202471
0.204697
0.207219
0.210001
0.212991
0.216124
0.219324
0.222505
0.225579
0.228453
0.231043
0.23327
0.23507
0.236391
0.237203
0.237492
0.237264
0.236544
0.23537
0.233796
0.231882
0.229698
0.227313
0.224796
0.222211
0.219616
0.217061
0.214585
0.212219
0.209985
0.207897
0.20596
0.204177
0.202544
0.201053
0.199695
0.198461
0.197341
0.196324
0.195401
0.194567
0.193814
0.193141
0.192547
0.192037
0.191615
0.191295
0.191091
0.191024
0.191123
0.191422
0.191965
0.192804
0.194004
0.195642
0.197804
0.200592
0.204114
0.208481
0.213799
0.220154
0.227588
0.236081
0.245519
0.255678
0.266204
0.276628
0.28638
0.294835
0.301362
0.30543
0.306338
0.305138
0.295051
0.220612
0.219418
0.218216
0.217007
0.215789
0.214565
0.213334
0.2121
0.210864
0.209631
0.208404
0.207188
0.205987
0.204807
0.203655
0.202539
0.201467
0.200449
0.199493
0.19861
0.19781
0.197102
0.196496
0.195999
0.19562
0.195362
0.195228
0.19522
0.195334
0.195564
0.195901
0.196332
0.19684
0.197406
0.198007
0.19862
0.199218
0.199778
0.200276
0.20069
0.201004
0.201203
0.201278
0.201227
0.201049
0.20075
0.200341
0.199832
0.19924
0.19858
0.197869
0.197122
0.196354
0.195579
0.194806
0.194046
0.193304
0.192584
0.191889
0.191219
0.190573
0.18995
0.189346
0.18876
0.188187
0.187627
0.187077
0.186536
0.186005
0.185487
0.184984
0.184502
0.184052
0.183642
0.183289
0.183012
0.182834
0.182784
0.1829
0.183226
0.183815
0.18473
0.186043
0.187838
0.190203
0.19323
0.197004
0.201593
0.207026
0.213279
0.220247
0.227729
0.235413
0.24289
0.249668
0.255219
0.259059
0.260565
0.260426
0.253701
0.223254
0.22219
0.221114
0.220027
0.218931
0.217826
0.216712
0.215592
0.214466
0.213335
0.212202
0.211068
0.209935
0.208807
0.207687
0.206577
0.205483
0.204408
0.203357
0.202334
0.201345
0.200395
0.199488
0.19863
0.197824
0.197075
0.196386
0.195759
0.195195
0.194694
0.194255
0.193875
0.19355
0.193276
0.193045
0.192851
0.192685
0.19254
0.192407
0.192279
0.192146
0.192004
0.191846
0.191668
0.191467
0.191241
0.19099
0.190716
0.19042
0.190104
0.189771
0.189425
0.189068
0.188703
0.188332
0.187956
0.187577
0.187194
0.186806
0.186412
0.186011
0.185601
0.185179
0.184742
0.18429
0.18382
0.183332
0.182823
0.182296
0.18175
0.181189
0.180617
0.180038
0.17946
0.178892
0.178348
0.177841
0.177393
0.177025
0.176769
0.17666
0.17674
0.177061
0.17768
0.178664
0.180082
0.182006
0.1845
0.187609
0.191347
0.195679
0.200505
0.205642
0.210826
0.215712
0.219902
0.223006
0.224514
0.224852
0.220526
0.224903
0.223936
0.222959
0.221972
0.220975
0.219968
0.218952
0.217927
0.216894
0.215855
0.21481
0.213761
0.21271
0.211656
0.210604
0.209553
0.208506
0.207466
0.206435
0.205415
0.20441
0.203421
0.202453
0.201508
0.200589
0.199699
0.198842
0.198018
0.197231
0.196481
0.19577
0.195098
0.194466
0.193871
0.193313
0.19279
0.1923
0.19184
0.191406
0.190996
0.190607
0.190236
0.189879
0.189535
0.1892
0.188873
0.188553
0.188237
0.187926
0.187617
0.187311
0.187006
0.186701
0.186397
0.18609
0.18578
0.185464
0.185142
0.184809
0.184464
0.184104
0.183725
0.183327
0.182904
0.182456
0.18198
0.181475
0.180939
0.180372
0.179775
0.179147
0.178491
0.177811
0.177109
0.176393
0.17567
0.174949
0.174242
0.173565
0.172936
0.172379
0.171922
0.171599
0.171449
0.17152
0.17186
0.172525
0.173567
0.175029
0.176941
0.179299
0.182061
0.18513
0.188347
0.19149
0.194287
0.196453
0.197601
0.197992
0.195184
0.225888
0.224993
0.224089
0.223176
0.222253
0.221321
0.22038
0.219431
0.218474
0.217511
0.216541
0.215565
0.214585
0.213602
0.212615
0.211628
0.21064
0.209653
0.208669
0.207689
0.206715
0.205749
0.204792
0.203846
0.202914
0.201998
0.201099
0.200221
0.199364
0.198531
0.197723
0.196941
0.196187
0.19546
0.194763
0.194094
0.193453
0.19284
0.192254
0.191695
0.19116
0.19065
0.190162
0.189695
0.189249
0.18882
0.188408
0.188012
0.18763
0.18726
0.1869
0.186549
0.186204
0.185864
0.185526
0.185187
0.184845
0.184496
0.184138
0.183767
0.183379
0.182973
0.182545
0.182091
0.181609
0.181097
0.180553
0.179974
0.179361
0.178711
0.178026
0.177305
0.176551
0.175765
0.17495
0.174112
0.173256
0.172388
0.17152
0.170662
0.169829
0.169039
0.168314
0.16768
0.167168
0.166814
0.166655
0.166733
0.167083
0.167735
0.168702
0.169972
0.171498
0.173191
0.174919
0.176505
0.177758
0.178401
0.17861
0.176639
0.226442
0.225597
0.224743
0.223882
0.223013
0.222136
0.221251
0.220359
0.21946
0.218554
0.217642
0.216724
0.215802
0.214875
0.213945
0.213012
0.212077
0.211141
0.210205
0.20927
0.208336
0.207406
0.20648
0.20556
0.204647
0.203743
0.202849
0.201967
0.201099
0.200245
0.199409
0.198591
0.197792
0.197013
0.196257
0.195522
0.194811
0.194123
0.193458
0.192818
0.192201
0.191607
0.191036
0.190487
0.18996
0.189454
0.188967
0.188498
0.188046
0.187609
0.187186
0.186774
0.186371
0.185975
0.185583
0.185193
0.1848
0.184403
0.183997
0.18358
0.183148
0.182697
0.182226
0.18173
0.181206
0.180653
0.180068
0.179448
0.178793
0.1781
0.17737
0.176602
0.175796
0.174954
0.174076
0.173167
0.172228
0.171264
0.170281
0.169287
0.16829
0.167301
0.166336
0.165409
0.164542
0.163757
0.163082
0.162545
0.162175
0.161996
0.162027
0.162269
0.162707
0.163294
0.163957
0.164588
0.165068
0.165203
0.165137
0.163549
0.226728
0.225914
0.225094
0.224268
0.223435
0.222595
0.221749
0.220897
0.220039
0.219175
0.218305
0.217431
0.216551
0.215668
0.214781
0.213891
0.212998
0.212104
0.211208
0.210312
0.209415
0.20852
0.207627
0.206736
0.205849
0.204968
0.204092
0.203225
0.202366
0.201517
0.200679
0.199855
0.199044
0.198249
0.19747
0.196708
0.195964
0.19524
0.194535
0.19385
0.193186
0.192543
0.19192
0.191318
0.190736
0.190174
0.189631
0.189106
0.188597
0.188105
0.187626
0.187159
0.186702
0.186252
0.185808
0.185365
0.184923
0.184476
0.184022
0.183559
0.183082
0.182588
0.182075
0.181539
0.180977
0.180387
0.179766
0.179111
0.178422
0.177696
0.176933
0.176131
0.175291
0.174412
0.173495
0.172541
0.171554
0.170534
0.169486
0.168414
0.167323
0.166222
0.165118
0.164022
0.162947
0.161908
0.160923
0.160012
0.159195
0.158492
0.15792
0.157488
0.157193
0.157017
0.156922
0.156847
0.156725
0.156421
0.156073
0.154599
0.226859
0.226064
0.225264
0.224458
0.223648
0.222832
0.222011
0.221185
0.220354
0.219518
0.218677
0.217832
0.216983
0.21613
0.215274
0.214416
0.213554
0.212691
0.211826
0.21096
0.210093
0.209226
0.20836
0.207495
0.206633
0.205773
0.204918
0.204068
0.203223
0.202386
0.201557
0.200737
0.199928
0.19913
0.198345
0.197574
0.196817
0.196076
0.19535
0.194642
0.193951
0.193278
0.192623
0.191986
0.191367
0.190766
0.190183
0.189616
0.189065
0.188529
0.188006
0.187494
0.186993
0.186498
0.18601
0.185523
0.185037
0.184549
0.184054
0.18355
0.183035
0.182504
0.181955
0.181385
0.180791
0.180171
0.17952
0.178839
0.178123
0.177373
0.176586
0.17576
0.174897
0.173994
0.173053
0.172075
0.171059
0.170008
0.168923
0.167809
0.166668
0.165505
0.164326
0.163137
0.161946
0.160765
0.159603
0.158475
0.157395
0.156378
0.155436
0.154581
0.153818
0.153141
0.152534
0.151966
0.151404
0.150754
0.15016
0.148662
0.22691
0.226124
0.225334
0.22454
0.223742
0.22294
0.222133
0.221322
0.220508
0.219689
0.218866
0.21804
0.217211
0.216378
0.215543
0.214705
0.213864
0.213022
0.212179
0.211334
0.210488
0.209642
0.208796
0.207951
0.207108
0.206266
0.205427
0.204592
0.203761
0.202936
0.202117
0.201305
0.200501
0.199706
0.198921
0.198148
0.197386
0.196637
0.195901
0.19518
0.194473
0.193782
0.193106
0.192447
0.191803
0.191176
0.190563
0.189967
0.189384
0.188815
0.188258
0.187712
0.187176
0.186646
0.186122
0.185601
0.18508
0.184557
0.184029
0.183493
0.182947
0.182386
0.181809
0.181212
0.180592
0.179947
0.179275
0.178572
0.177838
0.177069
0.176265
0.175424
0.174545
0.173628
0.172673
0.171679
0.170648
0.16958
0.168477
0.167342
0.166175
0.164981
0.163763
0.162526
0.161276
0.160019
0.158763
0.157516
0.156289
0.155093
0.153938
0.152833
0.151785
0.150797
0.149863
0.14897
0.148105
0.147203
0.146417
0.14484
0.226922
0.226141
0.225356
0.224567
0.223775
0.222979
0.22218
0.221378
0.220572
0.219762
0.21895
0.218134
0.217316
0.216495
0.215672
0.214847
0.214019
0.213191
0.21236
0.211529
0.210697
0.209865
0.209033
0.208201
0.20737
0.206541
0.205714
0.20489
0.204069
0.203253
0.202441
0.201636
0.200837
0.200046
0.199263
0.198489
0.197725
0.196972
0.196231
0.195502
0.194786
0.194083
0.193393
0.192718
0.192057
0.191411
0.190778
0.190159
0.189553
0.18896
0.188378
0.187806
0.187242
0.186686
0.186134
0.185586
0.185038
0.184488
0.183934
0.183372
0.182801
0.182217
0.181617
0.180999
0.18036
0.179697
0.179007
0.178289
0.17754
0.176759
0.175943
0.175091
0.174203
0.173277
0.172313
0.171312
0.170273
0.169197
0.168086
0.16694
0.165762
0.164554
0.163319
0.162061
0.160782
0.159488
0.158185
0.156878
0.155575
0.154284
0.153013
0.151769
0.150559
0.149388
0.148258
0.147163
0.146104
0.14503
0.144107
0.142441
0.22692
0.226139
0.225356
0.224569
0.22378
0.222987
0.222191
0.221392
0.22059
0.219785
0.218977
0.218167
0.217355
0.21654
0.215723
0.214904
0.214084
0.213262
0.212439
0.211616
0.210791
0.209967
0.209142
0.208318
0.207495
0.206673
0.205853
0.205036
0.204221
0.20341
0.202604
0.201802
0.201007
0.200218
0.199436
0.198662
0.197896
0.197141
0.196395
0.19566
0.194937
0.194225
0.193526
0.19284
0.192166
0.191505
0.190857
0.190222
0.189598
0.188986
0.188385
0.187792
0.187208
0.186631
0.186058
0.185488
0.184919
0.184348
0.183774
0.183192
0.182602
0.181999
0.181382
0.180748
0.180093
0.179416
0.178714
0.177984
0.177225
0.176434
0.17561
0.174751
0.173857
0.172926
0.171958
0.170953
0.16991
0.168832
0.167718
0.166569
0.165388
0.164175
0.162934
0.161667
0.160378
0.159069
0.157746
0.156412
0.155074
0.153737
0.152407
0.151092
0.149796
0.148526
0.147285
0.146073
0.144897
0.143715
0.142702
0.140959
0.226912
0.226132
0.225348
0.224562
0.223773
0.222981
0.222186
0.221388
0.220587
0.219784
0.218978
0.21817
0.21736
0.216547
0.215733
0.214917
0.2141
0.213281
0.212461
0.211641
0.21082
0.209999
0.209178
0.208357
0.207537
0.206719
0.205902
0.205088
0.204276
0.203467
0.202662
0.201862
0.201067
0.200278
0.199496
0.19872
0.197953
0.197194
0.196444
0.195704
0.194975
0.194256
0.193549
0.192853
0.192169
0.191497
0.190837
0.190188
0.189551
0.188924
0.188307
0.187699
0.187098
0.186504
0.185914
0.185327
0.184741
0.184154
0.183563
0.182965
0.18236
0.181743
0.181112
0.180465
0.179798
0.17911
0.178398
0.177659
0.176892
0.176095
0.175265
0.174402
0.173504
0.17257
0.1716
0.170593
0.169551
0.168472
0.167358
0.16621
0.165029
0.163817
0.162577
0.161309
0.160018
0.158706
0.157377
0.156034
0.154683
0.153327
0.151972
0.150624
0.149287
0.147967
0.146669
0.145394
0.144152
0.142907
0.141838
0.140039
0.226903
0.226122
0.225338
0.224552
0.223762
0.22297
0.222175
0.221377
0.220576
0.219773
0.218967
0.21816
0.21735
0.216538
0.215724
0.214908
0.214091
0.213273
0.212454
0.211635
0.210814
0.209994
0.209174
0.208354
0.207534
0.206716
0.2059
0.205085
0.204273
0.203465
0.202659
0.201858
0.201062
0.200271
0.199486
0.198708
0.197937
0.197174
0.19642
0.195675
0.194939
0.194214
0.193499
0.192795
0.192102
0.19142
0.190749
0.190089
0.18944
0.1888
0.188171
0.187549
0.186935
0.186327
0.185723
0.185122
0.184522
0.183921
0.183316
0.182706
0.182088
0.181459
0.180817
0.180159
0.179483
0.178787
0.178067
0.177321
0.176548
0.175746
0.174912
0.174045
0.173145
0.17221
0.171239
0.170233
0.169191
0.168113
0.167001
0.165855
0.164677
0.163469
0.162231
0.160967
0.159679
0.158369
0.157041
0.155699
0.154345
0.152985
0.151622
0.150262
0.148909
0.147567
0.146242
0.144937
0.143661
0.142381
0.14128
0.139442
0.226894
0.226112
0.225328
0.224541
0.223751
0.222958
0.222162
0.221364
0.220562
0.219759
0.218953
0.218144
0.217334
0.216521
0.215707
0.214891
0.214073
0.213254
0.212434
0.211614
0.210793
0.209971
0.20915
0.208329
0.207508
0.206689
0.205871
0.205055
0.204241
0.20343
0.202623
0.201819
0.20102
0.200226
0.199437
0.198655
0.19788
0.197112
0.196353
0.195602
0.19486
0.194127
0.193405
0.192693
0.191991
0.1913
0.19062
0.18995
0.18929
0.18864
0.187998
0.187365
0.186739
0.186119
0.185503
0.18489
0.184278
0.183665
0.183049
0.182427
0.181798
0.181159
0.180508
0.179841
0.179157
0.178453
0.177727
0.176976
0.176198
0.175391
0.174555
0.173686
0.172784
0.171848
0.170877
0.169871
0.16883
0.167755
0.166645
0.165502
0.164328
0.163123
0.16189
0.16063
0.159346
0.158042
0.156718
0.15538
0.15403
0.152672
0.15131
0.149948
0.148591
0.147243
0.145908
0.144589
0.143298
0.141999
0.140881
0.139016
0.226885
0.226103
0.225318
0.22453
0.22374
0.222946
0.222149
0.22135
0.220548
0.219744
0.218937
0.218127
0.217316
0.216502
0.215687
0.21487
0.214051
0.213231
0.212409
0.211587
0.210764
0.209941
0.209118
0.208295
0.207472
0.20665
0.20583
0.205011
0.204195
0.203381
0.20257
0.201763
0.20096
0.200162
0.199369
0.198582
0.197802
0.197028
0.196263
0.195505
0.194757
0.194017
0.193287
0.192567
0.191857
0.191158
0.190468
0.189789
0.189119
0.188458
0.187807
0.187163
0.186526
0.185894
0.185268
0.184644
0.184021
0.183397
0.182771
0.182139
0.181501
0.180853
0.180193
0.179518
0.178827
0.178116
0.177384
0.176628
0.175846
0.175036
0.174196
0.173325
0.172422
0.171485
0.170514
0.169509