/*--------------------------------*- C++ -*----------------------------------*\
| =========                 |                                                 |
| \\      /  F ield         | OpenFOAM: The Open Source CFD Toolbox           |
|  \\    /   O peration     | Version:  2.1.1                                 |
|   \\  /    A nd           | Web:      www.OpenFOAM.org                      |
|    \\/     M anipulation  |                                                 |
\*---------------------------------------------------------------------------*/
FoamFile
{
    version     2.0;
    format      ascii;
    class       volScalarField;
    location    "0.175";
    object      nut;
}
// * * * * * * * * * * * * * * * * * * * * * * * * * * * * * * * * * * * * * //

dimensions      [0 2 -1 0 0 0 0];

internalField   nonuniform List<scalar> 
6820
(
4.96025e-05
5.47044e-05
5.94497e-05
6.37667e-05
6.76166e-05
7.09775e-05
7.38478e-05
7.62453e-05
7.82023e-05
7.97604e-05
8.09661e-05
8.1867e-05
8.25093e-05
8.29358e-05
8.31852e-05
8.32917e-05
8.32844e-05
8.31884e-05
8.30243e-05
8.28094e-05
8.25576e-05
8.22805e-05
8.1987e-05
8.16844e-05
8.13782e-05
8.10729e-05
8.07716e-05
8.04772e-05
8.0188e-05
7.99214e-05
7.95977e-05
7.96004e-05
7.80658e-05
0.000540296
0.00030497
0.000219957
0.000171554
0.000140515
0.000119652
0.000105127
9.47433e-05
8.71792e-05
8.1598e-05
7.74497e-05
7.43604e-05
7.20695e-05
7.03911e-05
6.91896e-05
6.83648e-05
6.78411e-05
6.75609e-05
6.74794e-05
6.75614e-05
6.77788e-05
6.81091e-05
6.85337e-05
6.90371e-05
6.96065e-05
7.02306e-05
7.08999e-05
7.16052e-05
7.23392e-05
7.30898e-05
7.38544e-05
7.45978e-05
7.5271e-05
0.00105857
0.000836088
0.00067924
0.000569616
0.000490056
0.00043012
0.000383706
0.00034686
0.000316959
0.000292243
0.000271497
0.000253857
0.000238697
0.00022555
0.000214059
0.000203948
0.000195001
0.000187044
0.000179935
0.000173561
0.000167827
0.000162652
0.000157971
0.000153727
0.000149872
0.000146364
0.000143168
0.000140252
0.000137591
0.000135163
0.000132933
0.000130946
0.0001289
0.00115953
0.00109653
0.00101167
0.000926419
0.000849813
0.000783623
0.000727071
0.000678743
0.000637224
0.000601292
0.000569944
0.000542376
0.000517949
0.000496152
0.000476578
0.0004589
0.00044285
0.000428211
0.000414803
0.000402474
0.0003911
0.000380573
0.000370801
0.000361706
0.000353222
0.00034529
0.000337861
0.000330891
0.000324346
0.000318198
0.000312431
0.000307028
0.000302002
0.00116966
0.00115863
0.00113363
0.00109757
0.00105569
0.0010122
0.000969674
0.000929417
0.000891976
0.000857476
0.000825826
0.000796835
0.000770277
0.000745918
0.000723539
0.000702934
0.000683922
0.000666338
0.000650039
0.000634896
0.000620796
0.000607639
0.000595338
0.000583813
0.000572995
0.000562822
0.000553239
0.000544196
0.00053565
0.000527563
0.000519903
0.000512644
0.000505769
0.00117006
0.00116839
0.00116306
0.00115261
0.00113713
0.00111767
0.00109554
0.00107191
0.00104772
0.0010236
0.001
0.000977187
0.000955318
0.000934473
0.000914678
0.000895927
0.000878192
0.000861432
0.000845599
0.000830642
0.000816508
0.000803148
0.000790509
0.000778545
0.000767211
0.000756463
0.000746262
0.000736571
0.000727354
0.00071858
0.00071022
0.000702254
0.000694658
0.00116996
0.00116938
0.00116821
0.00116569
0.00116123
0.00115458
0.00114584
0.00113528
0.00112328
0.00111023
0.00109649
0.00108234
0.00106802
0.00105372
0.00103958
0.00102571
0.00101216
0.000998998
0.000986252
0.000973942
0.000962075
0.000950654
0.000939674
0.000929126
0.000918999
0.000909279
0.000899951
0.000891
0.00088241
0.000874165
0.00086625
0.000858656
0.000851368
0.00116994
0.0011694
0.00116883
0.00116803
0.00116674
0.00116472
0.0011618
0.00115791
0.00115304
0.00114728
0.00114074
0.00113354
0.00112582
0.0011177
0.00110929
0.00110069
0.00109199
0.00108326
0.00107456
0.00106593
0.00105741
0.00104902
0.0010408
0.00103276
0.00102492
0.00101727
0.00100983
0.00100259
0.000995568
0.000988753
0.000982146
0.000975747
0.000969555
0.00116994
0.00116939
0.00116886
0.00116832
0.0011677
0.00116692
0.00116588
0.00116449
0.00116269
0.00116043
0.00115772
0.00115455
0.00115097
0.00114701
0.00114272
0.00113815
0.00113334
0.00112834
0.00112319
0.00111794
0.00111262
0.00110725
0.00110187
0.0010965
0.00109115
0.00108585
0.00108061
0.00107543
0.00107034
0.00106533
0.00106042
0.00105561
0.0010509
0.00116994
0.00116938
0.00116885
0.00116833
0.00116782
0.00116729
0.00116671
0.00116605
0.00116526
0.00116432
0.00116319
0.00116185
0.0011603
0.00115853
0.00115654
0.00115435
0.00115197
0.00114941
0.00114671
0.00114386
0.0011409
0.00113785
0.00113471
0.00113151
0.00112826
0.00112498
0.00112167
0.00111836
0.00111505
0.00111175
0.00110846
0.0011052
0.00110198
0.00116994
0.00116938
0.00116884
0.00116832
0.00116782
0.00116732
0.00116683
0.00116634
0.00116582
0.00116527
0.00116466
0.00116399
0.00116324
0.0011624
0.00116146
0.00116042
0.00115927
0.00115803
0.00115668
0.00115524
0.00115371
0.0011521
0.00115042
0.00114867
0.00114686
0.001145
0.00114309
0.00114116
0.00113919
0.0011372
0.00113519
0.00113318
0.00113116
0.00116994
0.00116938
0.00116884
0.00116832
0.00116781
0.00116732
0.00116684
0.00116637
0.00116591
0.00116545
0.00116499
0.00116451
0.00116402
0.0011635
0.00116296
0.00116238
0.00116175
0.00116109
0.00116038
0.00115962
0.00115882
0.00115797
0.00115708
0.00115614
0.00115517
0.00115415
0.00115311
0.00115203
0.00115092
0.00114979
0.00114864
0.00114747
0.00114628
0.00116994
0.00116938
0.00116884
0.00116832
0.00116781
0.00116732
0.00116684
0.00116637
0.00116592
0.00116547
0.00116504
0.00116461
0.00116419
0.00116377
0.00116334
0.00116291
0.00116248
0.00116203
0.00116157
0.0011611
0.00116061
0.0011601
0.00115957
0.00115903
0.00115847
0.00115788
0.00115728
0.00115667
0.00115603
0.00115539
0.00115472
0.00115405
0.00115336
0.00116994
0.00116938
0.00116884
0.00116832
0.00116781
0.00116731
0.00116683
0.00116636
0.00116591
0.00116547
0.00116504
0.00116462
0.00116421
0.00116381
0.00116342
0.00116303
0.00116265
0.00116228
0.0011619
0.00116152
0.00116115
0.00116077
0.00116039
0.00116001
0.00115962
0.00115923
0.00115883
0.00115843
0.00115802
0.00115761
0.00115719
0.00115677
0.00115635
0.00116994
0.00116938
0.00116884
0.00116832
0.00116781
0.00116731
0.00116683
0.00116636
0.00116591
0.00116546
0.00116504
0.00116462
0.00116421
0.00116381
0.00116343
0.00116305
0.00116268
0.00116232
0.00116197
0.00116162
0.00116128
0.00116095
0.00116062
0.00116029
0.00115997
0.00115965
0.00115933
0.00115902
0.00115871
0.00115839
0.00115808
0.00115777
0.00115747
0.00116994
0.00116938
0.00116884
0.00116831
0.0011678
0.00116731
0.00116683
0.00116636
0.0011659
0.00116546
0.00116503
0.00116461
0.0011642
0.00116381
0.00116342
0.00116305
0.00116268
0.00116233
0.00116198
0.00116164
0.00116131
0.00116098
0.00116067
0.00116036
0.00116006
0.00115976
0.00115947
0.00115919
0.00115891
0.00115863
0.00115836
0.0011581
0.00115784
0.00116994
0.00116938
0.00116884
0.00116831
0.0011678
0.00116731
0.00116683
0.00116636
0.0011659
0.00116546
0.00116503
0.00116461
0.0011642
0.0011638
0.00116342
0.00116304
0.00116268
0.00116232
0.00116197
0.00116163
0.00116131
0.00116098
0.00116067
0.00116037
0.00116007
0.00115978
0.0011595
0.00115922
0.00115895
0.00115869
0.00115843
0.00115818
0.00115794
0.00116994
0.00116938
0.00116884
0.00116831
0.0011678
0.00116731
0.00116682
0.00116635
0.0011659
0.00116545
0.00116502
0.0011646
0.0011642
0.0011638
0.00116341
0.00116304
0.00116267
0.00116231
0.00116197
0.00116163
0.0011613
0.00116098
0.00116066
0.00116036
0.00116006
0.00115978
0.00115949
0.00115922
0.00115895
0.00115869
0.00115844
0.00115819
0.00115795
0.00116994
0.00116938
0.00116884
0.00116831
0.0011678
0.0011673
0.00116682
0.00116635
0.0011659
0.00116545
0.00116502
0.0011646
0.00116419
0.00116379
0.00116341
0.00116303
0.00116266
0.00116231
0.00116196
0.00116162
0.00116129
0.00116097
0.00116066
0.00116035
0.00116005
0.00115977
0.00115948
0.00115921
0.00115894
0.00115868
0.00115843
0.00115818
0.00115794
0.00116994
0.00116938
0.00116884
0.00116831
0.0011678
0.0011673
0.00116682
0.00116635
0.00116589
0.00116545
0.00116502
0.0011646
0.00116419
0.00116379
0.0011634
0.00116303
0.00116266
0.0011623
0.00116195
0.00116161
0.00116128
0.00116096
0.00116065
0.00116034
0.00116005
0.00115976
0.00115947
0.0011592
0.00115893
0.00115867
0.00115842
0.00115817
0.00115793
0.00116994
0.00116938
0.00116884
0.00116831
0.0011678
0.0011673
0.00116682
0.00116635
0.00116589
0.00116545
0.00116502
0.00116459
0.00116419
0.00116379
0.0011634
0.00116302
0.00116265
0.0011623
0.00116195
0.00116161
0.00116128
0.00116095
0.00116064
0.00116034
0.00116004
0.00115975
0.00115946
0.00115919
0.00115892
0.00115866
0.00115841
0.00115816
0.00115792
0.00116994
0.00116938
0.00116884
0.00116831
0.0011678
0.0011673
0.00116682
0.00116635
0.00116589
0.00116545
0.00116501
0.00116459
0.00116418
0.00116378
0.0011634
0.00116302
0.00116265
0.00116229
0.00116194
0.0011616
0.00116127
0.00116095
0.00116063
0.00116033
0.00116003
0.00115974
0.00115946
0.00115918
0.00115891
0.00115865
0.00115839
0.00115814
0.0011579
0.00116994
0.00116938
0.00116884
0.00116831
0.0011678
0.0011673
0.00116682
0.00116635
0.00116589
0.00116545
0.00116501
0.00116459
0.00116418
0.00116378
0.00116339
0.00116301
0.00116265
0.00116229
0.00116194
0.0011616
0.00116127
0.00116094
0.00116063
0.00116032
0.00116002
0.00115973
0.00115945
0.00115917
0.0011589
0.00115864
0.00115838
0.00115813
0.00115789
0.00116994
0.00116938
0.00116884
0.00116831
0.0011678
0.0011673
0.00116682
0.00116635
0.00116589
0.00116544
0.00116501
0.00116459
0.00116418
0.00116378
0.00116339
0.00116301
0.00116264
0.00116228
0.00116193
0.00116159
0.00116126
0.00116094
0.00116062
0.00116032
0.00116002
0.00115972
0.00115944
0.00115916
0.00115889
0.00115863
0.00115837
0.00115812
0.00115788
0.00116994
0.00116938
0.00116884
0.00116831
0.0011678
0.0011673
0.00116682
0.00116635
0.00116589
0.00116544
0.00116501
0.00116459
0.00116418
0.00116378
0.00116339
0.00116301
0.00116264
0.00116228
0.00116193
0.00116159
0.00116126
0.00116093
0.00116062
0.00116031
0.00116001
0.00115972
0.00115943
0.00115916
0.00115888
0.00115862
0.00115836
0.00115811
0.00115787
0.00116994
0.00116938
0.00116884
0.00116831
0.0011678
0.0011673
0.00116682
0.00116635
0.00116589
0.00116544
0.00116501
0.00116459
0.00116418
0.00116378
0.00116339
0.00116301
0.00116264
0.00116228
0.00116193
0.00116159
0.00116125
0.00116093
0.00116061
0.0011603
0.00116
0.00115971
0.00115943
0.00115915
0.00115888
0.00115861
0.00115835
0.0011581
0.00115786
0.00116994
0.00116938
0.00116884
0.00116831
0.0011678
0.0011673
0.00116682
0.00116635
0.00116589
0.00116544
0.00116501
0.00116459
0.00116417
0.00116377
0.00116338
0.001163
0.00116264
0.00116228
0.00116192
0.00116158
0.00116125
0.00116092
0.00116061
0.0011603
0.00116
0.00115971
0.00115942
0.00115914
0.00115887
0.00115861
0.00115835
0.0011581
0.00115785
0.00116994
0.00116938
0.00116884
0.00116831
0.0011678
0.0011673
0.00116682
0.00116635
0.00116589
0.00116544
0.00116501
0.00116458
0.00116417
0.00116377
0.00116338
0.001163
0.00116263
0.00116227
0.00116192
0.00116158
0.00116125
0.00116092
0.00116061
0.0011603
0.00116
0.0011597
0.00115942
0.00115914
0.00115886
0.0011586
0.00115834
0.00115809
0.00115784
0.00116994
0.00116938
0.00116884
0.00116831
0.0011678
0.0011673
0.00116682
0.00116634
0.00116589
0.00116544
0.00116501
0.00116458
0.00116417
0.00116377
0.00116338
0.001163
0.00116263
0.00116227
0.00116192
0.00116158
0.00116125
0.00116092
0.0011606
0.00116029
0.00115999
0.0011597
0.00115941
0.00115913
0.00115886
0.00115859
0.00115834
0.00115808
0.00115784
0.00116994
0.00116938
0.00116884
0.00116831
0.0011678
0.0011673
0.00116682
0.00116635
0.00116589
0.00116544
0.00116501
0.00116459
0.00116417
0.00116377
0.00116338
0.001163
0.00116263
0.00116227
0.00116192
0.00116158
0.00116125
0.00116092
0.0011606
0.00116029
0.00115999
0.0011597
0.00115941
0.00115913
0.00115886
0.00115859
0.00115833
0.00115808
0.00115783
0.00116994
0.00116938
0.00116884
0.00116831
0.0011678
0.0011673
0.00116682
0.00116635
0.00116589
0.00116544
0.00116501
0.00116459
0.00116418
0.00116378
0.00116339
0.00116301
0.00116264
0.00116228
0.00116192
0.00116158
0.00116125
0.00116092
0.0011606
0.00116029
0.00115999
0.0011597
0.00115941
0.00115913
0.00115885
0.00115859
0.00115832
0.00115807
0.00115782
0.00116994
0.00116938
0.00116884
0.00116831
0.0011678
0.00116731
0.00116682
0.00116635
0.0011659
0.00116545
0.00116502
0.0011646
0.00116418
0.00116378
0.00116339
0.00116301
0.00116264
0.00116228
0.00116193
0.00116158
0.00116125
0.00116092
0.0011606
0.00116029
0.00115998
0.00115968
0.00115939
0.0011591
0.00115882
0.00115854
0.00115828
0.00115801
0.00115775
0.00116994
0.00116938
0.00116884
0.00116831
0.00116781
0.00116731
0.00116683
0.00116636
0.0011659
0.00116546
0.00116503
0.0011646
0.00116419
0.00116379
0.0011634
0.00116301
0.00116264
0.00116227
0.0011619
0.00116155
0.0011612
0.00116086
0.00116052
0.00116019
0.00115986
0.00115953
0.00115921
0.0011589
0.00115858
0.00115828
0.00115797
0.00115767
0.00115737
0.00116994
0.00116938
0.00116884
0.00116833
0.00116782
0.00116733
0.00116685
0.00116638
0.00116593
0.00116548
0.00116503
0.00116459
0.00116416
0.00116373
0.00116331
0.00116288
0.00116246
0.00116204
0.00116161
0.00116119
0.00116076
0.00116033
0.0011599
0.00115946
0.00115902
0.00115858
0.00115814
0.00115769
0.00115724
0.00115678
0.00115632
0.00115586
0.0011554
0.00116994
0.00116939
0.00116886
0.00116835
0.00116784
0.00116733
0.00116683
0.00116632
0.00116581
0.00116528
0.00116473
0.00116417
0.00116358
0.00116297
0.00116233
0.00116166
0.00116096
0.00116024
0.00115948
0.0011587
0.00115789
0.00115706
0.0011562
0.00115531
0.00115441
0.00115348
0.00115254
0.00115158
0.0011506
0.00114961
0.00114861
0.0011476
0.00114658
0.00116995
0.0011694
0.00116886
0.00116828
0.00116765
0.00116694
0.00116612
0.00116519
0.00116413
0.00116294
0.00116162
0.00116016
0.00115858
0.00115688
0.00115506
0.00115313
0.0011511
0.00114899
0.00114679
0.00114452
0.00114219
0.00113981
0.00113738
0.00113492
0.00113242
0.0011299
0.00112737
0.00112482
0.00112227
0.00111972
0.00111718
0.00111464
0.00111211
0.00116996
0.00116916
0.00116786
0.00116595
0.00116343
0.00116029
0.00115656
0.00115227
0.00114746
0.00114221
0.00113658
0.00113062
0.00112441
0.001118
0.00111143
0.00110476
0.00109802
0.00109125
0.00108449
0.00107775
0.00107105
0.00106442
0.00105787
0.00105141
0.00104506
0.00103882
0.00103269
0.00102669
0.00102081
0.00101506
0.00100944
0.00100395
0.000998586
0.00116831
0.00115866
0.001145
0.00112844
0.00110969
0.00108947
0.00106843
0.00104707
0.0010258
0.00100488
0.000984487
0.00096475
0.000945739
0.00092749
0.000910016
0.000893312
0.000877361
0.000862141
0.000847623
0.000833777
0.00082057
0.000807971
0.000795948
0.000784471
0.000773509
0.000763035
0.000753021
0.000743443
0.000734277
0.0007255
0.00071709
0.000709029
0.000701295
0.00107567
0.000936196
0.000835612
0.000756903
0.000692119
0.000638382
0.000593486
0.000555603
0.000523295
0.000495458
0.000471245
0.000450002
0.000431225
0.000414514
0.000399553
0.000386088
0.000373913
0.000362858
0.000352781
0.000343565
0.000335111
0.000327333
0.00032016
0.000313529
0.000307385
0.000301681
0.000296377
0.000291434
0.000286822
0.000282512
0.000278477
0.000274696
0.000271147
0.000142979
0.000146644
0.000150174
0.000153551
0.000156773
0.000159846
0.000162776
0.000165567
0.000168225
0.000170754
0.000173161
0.00017545
0.000177625
0.000179691
0.000181653
0.000183516
0.000185285
0.000186962
0.000188553
0.000190062
0.000191493
0.000192849
0.000194134
0.000195352
0.000196505
0.000197598
0.000198634
0.000199614
0.000200543
0.000201423
0.000202255
0.000203044
0.000203791
9.09891e-05
0.000110336
0.000133598
0.000161339
0.000193211
0.00022777
0.000263066
0.000297394
0.000329717
0.000359799
0.000388006
0.000415006
0.000441451
0.00046779
0.000494215
0.000520723
0.000547227
0.000573664
0.000600049
0.000626484
0.000653127
0.000680153
0.000707709
0.000735893
0.000764747
0.000794265
0.0008244
0.000855084
0.000886227
0.000917727
0.000949465
0.000981301
0.00101308
0.00104461
0.00107569
0.00110609
0.00113557
0.00116388
0.00119074
0.0012159
0.00123907
0.00125999
0.0012784
0.00129406
0.00130674
0.00131625
0.00132242
0.00132515
0.00132436
0.00132006
0.00131231
0.00130125
0.00128709
0.00127016
0.00125082
0.00122957
0.00120694
0.00118357
0.00116011
0.00113726
0.00111572
0.00109614
0.00107911
0.00106511
0.00105451
0.0010475
0.00104416
0.00104441
0.00104806
0.00105484
0.00106447
0.00107662
0.00109104
0.00110751
0.00112589
0.00114614
0.00116828
0.00119241
0.0012187
0.00124736
0.0012786
0.00131263
0.0013496
0.00138957
0.00143247
0.00147808
0.00152599
0.00157559
0.00162607
0.00167643
0.00172551
0.00177199
0.00181447
0.00185152
0.00188169
0.00190359
0.00191609
0.00191775
0.00191047
0.00187579
7.64319e-05
7.85401e-05
8.18697e-05
8.70751e-05
9.49153e-05
0.000106121
0.000121253
0.00014059
0.00016402
0.000191014
0.000220697
0.000251998
0.000283832
0.000315285
0.000345739
0.000374921
0.00040286
0.000429797
0.000456069
0.000482004
0.000507859
0.000533791
0.000559868
0.000586098
0.000612459
0.000638926
0.00066548
0.000692108
0.000718792
0.000745503
0.000772186
0.000798758
0.000825105
0.000851084
0.000876528
0.000901248
0.000925041
0.000947693
0.00096898
0.000988676
0.00100656
0.0010224
0.00103601
0.00104718
0.00105574
0.00106157
0.00106457
0.0010647
0.00106198
0.00105649
0.00104839
0.00103794
0.00102544
0.00101133
0.000996101
0.00098032
0.000964616
0.000949649
0.000936081
0.000924539
0.000915572
0.000909616
0.000906958
0.000907716
0.000911837
0.000919109
0.000929197
0.000941681
0.000956109
0.000972039
0.000989074
0.0010069
0.00102527
0.00104407
0.00106327
0.00108292
0.00110319
0.00112431
0.00114658
0.00117036
0.00119604
0.00122402
0.00125464
0.0012882
0.00132485
0.00136457
0.00140715
0.00145213
0.00149881
0.00154625
0.0015933
0.00163865
0.00168084
0.00171837
0.00174975
0.00177352
0.00178848
0.0017932
0.00178941
0.00176075
0.000126859
0.000124838
0.000122786
0.000120508
0.000118009
0.000115466
0.000113533
0.00011264
0.000113222
0.000115813
0.000120955
0.000129109
0.000140587
0.000155498
0.000173728
0.000194947
0.000218637
0.000244164
0.000270852
0.000298071
0.000325311
0.000352214
0.000378588
0.000404377
0.000429622
0.000454412
0.000478844
0.000502991
0.000526892
0.000550541
0.000573897
0.000596887
0.000619418
0.000641378
0.000662642
0.000683077
0.000702539
0.000720878
0.00073794
0.00075357
0.000767616
0.000779934
0.000790399
0.000798906
0.000805385
0.000809803
0.00081218
0.000812594
0.000811188
0.000808182
0.000803872
0.000798632
0.000792912
0.000787226
0.000782134
0.000778215
0.000776038
0.000776115
0.000778864
0.000784567
0.000793339
0.00080512
0.000819675
0.00083663
0.000855504
0.000875768
0.000896891
0.000918377
0.000939804
0.000960835
0.000981226
0.00100083
0.00101958
0.00103749
0.00105467
0.00107126
0.00108749
0.00110364
0.00112006
0.00113714
0.00115534
0.00117516
0.00119708
0.00122159
0.00124907
0.00127978
0.00131378
0.00135087
0.00139055
0.00143207
0.00147436
0.00151614
0.00155595
0.00159224
0.00162344
0.00164804
0.00166476
0.00167215
0.00167165
0.00164948
0.000296564
0.000290541
0.000284519
0.000278397
0.000272015
0.000265169
0.000257749
0.00024961
0.000241106
0.000232302
0.000223308
0.000214367
0.000205866
0.000198294
0.000192187
0.000188057
0.00018633
0.000187311
0.000191161
0.000197899
0.000207408
0.000219464
0.000233754
0.000249911
0.000267543
0.000286265
0.000305718
0.00032559
0.000345623
0.000365614
0.000385405
0.000404875
0.000423926
0.00044247
0.000460426
0.000477711
0.000494238
0.000509922
0.000524678
0.000538429
0.000551112
0.000562682
0.000573121
0.000582444
0.000590705
0.000598006
0.000604504
0.000610409
0.000615992
0.000621579
0.000627544
0.000634295
0.000642253
0.000651824
0.000663363
0.000677144
0.000693325
0.000711922
0.000732805
0.000755704
0.000780232
0.000805926
0.000832282
0.000858805
0.000885034
0.000910576
0.000935113
0.00095841
0.000980313
0.00100074
0.00101967
0.00103714
0.00105323
0.00106803
0.00108168
0.00109435
0.00110622
0.00111753
0.00112851
0.00113949
0.00115083
0.00116294
0.00117631
0.00119146
0.00120893
0.0012292
0.00125261
0.00127933
0.00130923
0.00134186
0.00137642
0.00141181
0.00144667
0.00147947
0.00150861
0.00153252
0.00154985
0.00155915
0.00156142
0.00154584
0.000498226
0.000489985
0.000481994
0.0004742
0.000466534
0.000458896
0.00045117
0.000443189
0.000434888
0.00042625
0.000417185
0.000407595
0.000397403
0.000386573
0.00037514
0.000363219
0.00035102
0.00033884
0.000327043
0.000316028
0.000306186
0.000297866
0.000291347
0.000286823
0.000284403
0.00028411
0.000285893
0.000289639
0.000295188
0.000302345
0.000310898
0.000320628
0.000331321
0.000342777
0.000354816
0.000367283
0.000380048
0.000393006
0.000406085
0.000419238
0.000432449
0.000445734
0.000459142
0.000472755
0.000486688
0.00050109
0.000516135
0.000532019
0.000548944
0.000567107
0.000586681
0.000607792
0.000630507
0.000654812
0.00068061
0.000707714
0.000735861
0.000764725
0.000793939
0.000823123
0.000851905
0.000879947
0.000906958
0.000932704
0.000957014
0.000979776
0.00100093
0.00102048
0.00103845
0.00105489
0.0010699
0.00108356
0.001096
0.00110731
0.00111763
0.00112706
0.00113574
0.00114378
0.00115133
0.00115855
0.00116564
0.00117283
0.00118043
0.00118883
0.00119847
0.00120985
0.00122347
0.00123978
0.00125902
0.0012812
0.00130595
0.00133258
0.00136002
0.00138694
0.00141185
0.0014332
0.00144962
0.00145969
0.00146386
0.00145446
0.000686263
0.000677058
0.000668141
0.0006595
0.000651107
0.000642925
0.000634905
0.000626978
0.000619105
0.000611243
0.00060334
0.000595341
0.000587183
0.000578802
0.000570135
0.000561127
0.000551739
0.000541959
0.000531806
0.000521339
0.000510659
0.000499906
0.000489255
0.000478907
0.000469078
0.000459989
0.00045185
0.000444856
0.000439171
0.000434923
0.000432206
0.000431072
0.000431543
0.000433612
0.000437251
0.000442417
0.000449063
0.000457138
0.000466597
0.000477405
0.000489535
0.000502972
0.00051771
0.000533754
0.000551111
0.000569785
0.000589773
0.000611057
0.000633592
0.000657307
0.000682093
0.000707803
0.000734255
0.000761233
0.000788494
0.000815782
0.000842835
0.0008694
0.000895244
0.000920161
0.00094398
0.00096657
0.000987837
0.00100773
0.00102622
0.00104333
0.00105909
0.00107356
0.00108681
0.00109891
0.00110997
0.00112007
0.0011293
0.00113775
0.00114552
0.00115268
0.00115932
0.00116552
0.00117134
0.00117686
0.00118216
0.00118732
0.00119246
0.00119774
0.00120338
0.00120968
0.00121702
0.00122582
0.0012365
0.00124937
0.00126453
0.00128177
0.00130056
0.00131997
0.00133886
0.00135588
0.00136976
0.00137921
0.00138413
0.00137984
0.000843251
0.000834269
0.00082549
0.000816917
0.000808547
0.000800372
0.000792383
0.000784557
0.000776887
0.000769359
0.000761957
0.000754663
0.000747459
0.000740326
0.000733244
0.000726188
0.000719134
0.00071206
0.000704947
0.000697783
0.000690568
0.000683314
0.00067605
0.000668827
0.00066171
0.000654789
0.000648169
0.00064197
0.000636324
0.000631368
0.000627242
0.000624077
0.000621999
0.000621117
0.000621528
0.000623309
0.000626521
0.000631209
0.000637399
0.000645103
0.000654317
0.000665022
0.000677185
0.000690756
0.000705671
0.00072185
0.000739192
0.00075758
0.000776878
0.000796935
0.000817583
0.000838642
0.000859925
0.000881243
0.00090241
0.000923247
0.000943591
0.000963295
0.000982236
0.00100031
0.00101745
0.00103361
0.00104874
0.00106286
0.00107597
0.00108809
0.00109928
0.00110958
0.00111904
0.00112773
0.00113572
0.00114306
0.00114984
0.00115612
0.00116197
0.00116745
0.00117263
0.00117757
0.00118232
0.00118695
0.00119149
0.00119599
0.00120046
0.00120494
0.00120948
0.00121415
0.00121908
0.00122447
0.00123057
0.00123769
0.00124609
0.00125591
0.00126707
0.00127918
0.00129159
0.0013034
0.0013136
0.0013212
0.0013257
0.00132484
0.000962589
0.000954793
0.000947079
0.00093946
0.000931947
0.000924546
0.00091726
0.000910092
0.000903046
0.000896124
0.000889328
0.000882662
0.000876131
0.000869738
0.000863488
0.000857385
0.000851431
0.000845627
0.000839975
0.000834475
0.000829129
0.000823941
0.000818918
0.000814074
0.000809431
0.000805018
0.000800876
0.000797054
0.000793612
0.000790619
0.000788151
0.000786289
0.000785117
0.000784715
0.000785164
0.000786536
0.000788893
0.000792288
0.00079676
0.000802334
0.000809019
0.000816807
0.000825674
0.00083558
0.000846465
0.000858257
0.000870867
0.000884192
0.000898119
0.000912526
0.000927281
0.000942254
0.000957311
0.000972324
0.000987168
0.00100173
0.00101592
0.00102963
0.0010428
0.00105537
0.00106731
0.00107857
0.00108916
0.00109906
0.00110829
0.00111687
0.00112481
0.00113216
0.00113895
0.00114521
0.001151
0.00115635
0.00116132
0.00116594
0.00117029
0.0011744
0.00117834
0.00118216
0.00118591
0.00118967
0.00119348
0.00119738
0.00120141
0.00120558
0.00120991
0.00121437
0.00121896
0.00122366
0.00122851
0.00123358
0.00123901
0.00124493
0.00125142
0.00125845
0.00126581
0.00127305
0.0012796
0.00128484
0.00128817
0.0012889
0.00104555
0.00103948
0.0010334
0.00102731
0.00102123
0.00101516
0.00100913
0.00100314
0.000997189
0.000991301
0.00098548
0.00097974
0.00097409
0.000968546
0.00096312
0.000957826
0.000952679
0.000947692
0.000942879
0.000938253
0.000933825
0.000929609
0.000925616
0.00092186
0.000918357
0.000915125
0.000912184
0.000909559
0.000907281
0.000905382
0.0009039
0.000902875
0.00090235
0.000902369
0.000902975
0.000904208
0.000906106
0.0009087
0.000912014
0.000916064
0.000920856
0.000926384
0.000932633
0.000939575
0.00094717
0.000955369
0.000964111
0.000973327
0.000982941
0.000992872
0.00100303
0.00101334
0.0010237
0.00103404
0.00104428
0.00105433
0.00106415
0.00107367
0.00108285
0.00109165
0.00110003
0.00110799
0.0011155
0.00112256
0.00112918
0.00113536
0.00114111
0.00114646
0.00115141
0.00115599
0.00116023
0.00116415
0.00116779
0.00117117
0.00117434
0.00117734
0.0011802
0.00118299
0.00118575
0.00118854
0.00119142
0.00119446
0.00119771
0.00120122
0.00120502
0.00120912
0.0012135
0.00121811
0.00122289
0.00122776
0.00123265
0.00123754
0.00124242
0.00124728
0.00125206
0.00125662
0.00126071
0.00126409
0.00126624
0.00126724
0.00109826
0.00109399
0.00108965
0.00108524
0.00108077
0.00107626
0.00107171
0.00106714
0.00106255
0.00105795
0.00105336
0.00104879
0.00104425
0.00103975
0.00103532
0.00103096
0.00102669
0.00102253
0.0010185
0.00101461
0.00101088
0.00100732
0.00100396
0.00100081
0.000997879
0.000995191
0.000992764
0.000990614
0.000988762
0.000987229
0.000986036
0.000985206
0.000984762
0.000984727
0.000985123
0.000985971
0.000987289
0.000989093
0.000991395
0.000994201
0.000997511
0.00100132
0.00100562
0.00101038
0.00101559
0.0010212
0.00102719
0.0010335
0.00104009
0.00104691
0.00105389
0.00106099
0.00106815
0.00107532
0.00108244
0.00108947
0.00109637
0.00110308
0.0011096
0.00111587
0.00112189
0.00112764
0.0011331
0.00113826
0.00114312
0.00114768
0.00115195
0.00115592
0.0011596
0.00116302
0.00116617
0.00116908
0.00117176
0.00117423
0.00117652
0.00117865
0.00118065
0.00118257
0.00118444
0.00118632
0.00118826
0.00119033
0.00119258
0.00119509
0.00119793
0.00120113
0.00120474
0.00120875
0.00121311
0.00121775
0.00122255
0.00122738
0.0012321
0.0012366
0.00124077
0.0012445
0.00124767
0.00125019
0.00125176
0.00125258
0.00112881
0.00112606
0.00112322
0.0011203
0.00111729
0.00111422
0.00111107
0.00110787
0.00110461
0.00110131
0.00109797
0.00109461
0.00109123
0.00108785
0.00108447
0.00108112
0.00107781
0.00107455
0.00107135
0.00106824
0.00106522
0.00106232
0.00105955
0.00105692
0.00105446
0.00105218
0.00105009
0.00104821
0.00104657
0.00104517
0.00104403
0.00104317
0.0010426
0.00104234
0.0010424
0.00104279
0.00104353
0.00104461
0.00104606
0.00104787
0.00105003
0.00105255
0.00105541
0.0010586
0.00106211
0.00106591
0.00106998
0.00107429
0.00107881
0.0010835
0.00108833
0.00109327
0.00109827
0.00110331
0.00110834
0.00111334
0.00111828
0.00112312
0.00112784
0.00113242
0.00113685
0.0011411
0.00114517
0.00114904
0.0011527
0.00115615
0.00115939
0.00116242
0.00116523
0.00116783
0.00117022
0.00117242
0.00117441
0.00117623
0.00117788
0.00117937
0.00118074
0.00118199
0.00118317
0.00118431
0.00118545
0.00118665
0.00118796
0.00118945
0.00119119
0.00119326
0.00119571
0.00119858
0.00120191
0.00120567
0.00120979
0.00121415
0.00121861
0.00122299
0.0012271
0.00123079
0.00123389
0.00123632
0.00123787
0.00123867
0.00114488
0.00114323
0.0011415
0.0011397
0.00113782
0.00113586
0.00113384
0.00113175
0.00112961
0.0011274
0.00112514
0.00112284
0.0011205
0.00111813
0.00111574
0.00111334
0.00111093
0.00110854
0.00110616
0.00110382
0.00110153
0.00109929
0.00109713
0.00109505
0.00109307
0.00109121
0.00108948
0.00108789
0.00108646
0.0010852
0.00108413
0.00108325
0.00108259
0.00108216
0.00108195
0.00108199
0.00108228
0.00108282
0.00108363
0.0010847
0.00108603
0.00108762
0.00108947
0.00109156
0.00109388
0.00109643
0.00109918
0.00110212
0.00110523
0.00110848
0.00111185
0.00111532
0.00111887
0.00112247
0.00112609
0.00112972
0.00113333
0.00113689
0.0011404
0.00114383
0.00114717
0.0011504
0.00115351
0.00115649
0.00115933
0.00116201
0.00116454
0.00116691
0.00116911
0.00117114
0.00117301
0.0011747
0.00117622
0.00117758
0.00117878
0.00117984
0.00118075
0.00118154
0.00118222
0.00118282
0.00118337
0.00118391
0.00118448
0.00118513
0.00118592
0.00118693
0.00118821
0.00118985
0.00119188
0.00119434
0.00119724
0.00120051
0.00120407
0.00120776
0.00121142
0.00121485
0.00121785
0.00122028
0.00122194
0.00122292
0.00115255
0.00115158
0.00115056
0.00114948
0.00114835
0.00114716
0.00114591
0.00114462
0.00114327
0.00114187
0.00114042
0.00113893
0.0011374
0.00113583
0.00113422
0.0011326
0.00113095
0.00112929
0.00112763
0.00112597
0.00112433
0.0011227
0.00112111
0.00111956
0.00111806
0.00111663
0.00111528
0.00111401
0.00111284
0.00111179
0.00111086
0.00111006
0.00110941
0.00110891
0.00110857
0.00110841
0.00110843
0.00110863
0.00110903
0.00110961
0.00111039
0.00111136
0.00111252
0.00111387
0.0011154
0.00111711
0.00111897
0.00112099
0.00112315
0.00112543
0.00112783
0.00113032
0.00113288
0.00113551
0.00113818
0.00114088
0.00114359
0.00114629
0.00114897
0.00115161
0.00115421
0.00115673
0.00115919
0.00116155
0.00116381
0.00116596
0.001168
0.00116991
0.00117168
0.00117332
0.00117481
0.00117616
0.00117736
0.0011784
0.0011793
0.00118005
0.00118066
0.00118114
0.00118149
0.00118174
0.00118189
0.00118198