/*--------------------------------*- C++ -*----------------------------------*\
| =========                 |                                                 |
| \\      /  F ield         | OpenFOAM: The Open Source CFD Toolbox           |
|  \\    /   O peration     | Version:  2.1.1                                 |
|   \\  /    A nd           | Web:      www.OpenFOAM.org                      |
|    \\/     M anipulation  |                                                 |
\*---------------------------------------------------------------------------*/
FoamFile
{
    version     2.0;
    format      ascii;
    class       volScalarField;
    location    "0.175";
    object      p;
}
// * * * * * * * * * * * * * * * * * * * * * * * * * * * * * * * * * * * * * //

dimensions      [0 2 -2 0 0 0 0];

internalField   nonuniform List<scalar> 
6820
(
-10.1829
-12.0292
-12.6042
-12.732
-12.8391
-12.9183
-12.9727
-13.0191
-13.0616
-13.1005
-13.1367
-13.171
-13.2036
-13.2346
-13.2642
-13.2924
-13.3195
-13.3455
-13.3706
-13.3947
-13.4181
-13.4408
-13.4627
-13.484
-13.5046
-13.5243
-13.5429
-13.56
-13.5746
-13.5855
-13.5885
-13.5776
-13.5395
-14.1354
-13.6008
-13.1783
-12.9883
-12.9637
-12.9749
-12.9952
-13.0231
-13.0552
-13.0886
-13.122
-13.155
-13.1873
-13.2186
-13.2487
-13.2777
-13.3057
-13.3325
-13.3584
-13.3833
-13.4074
-13.4308
-13.4534
-13.4754
-13.4967
-13.5172
-13.5369
-13.5559
-13.5735
-13.5914
-13.608
-13.6452
-13.695
-12.4929
-12.1891
-12.4757
-12.7208
-12.8258
-12.9012
-12.9602
-13.0095
-13.0535
-13.0935
-13.1306
-13.1653
-13.198
-13.229
-13.2585
-13.2866
-13.3136
-13.3395
-13.3645
-13.3886
-13.4119
-13.4346
-13.4567
-13.4782
-13.4991
-13.5195
-13.5394
-13.5589
-13.5779
-13.5977
-13.6186
-13.6472
-13.6804
-12.9999
-13.0342
-13.0314
-12.9722
-12.9645
-12.985
-13.0113
-13.0402
-13.071
-13.1023
-13.1334
-13.164
-13.1939
-13.223
-13.2513
-13.2787
-13.3052
-13.3309
-13.3559
-13.3801
-13.4037
-13.4266
-13.449
-13.471
-13.4924
-13.5136
-13.5344
-13.5552
-13.5763
-13.5989
-13.6237
-13.6576
-13.6982
-12.8445
-12.7445
-12.7887
-12.8546
-12.9076
-12.9541
-12.9948
-13.0322
-13.068
-13.1023
-13.1352
-13.1669
-13.1973
-13.2266
-13.2549
-13.2821
-13.3084
-13.3337
-13.3583
-13.3822
-13.4055
-13.4281
-13.4503
-13.4721
-13.4936
-13.5148
-13.5359
-13.5573
-13.5794
-13.6031
-13.6294
-13.6617
-13.6989
-12.8995
-12.8829
-12.9081
-12.9311
-12.9535
-12.9828
-13.0143
-13.0459
-13.0776
-13.109
-13.1396
-13.1695
-13.1985
-13.2267
-13.2541
-13.2805
-13.3062
-13.3312
-13.3555
-13.3791
-13.4022
-13.4248
-13.447
-13.4689
-13.4905
-13.512
-13.5336
-13.5557
-13.5786
-13.6031
-13.63
-13.6612
-13.6961
-12.8977
-12.8766
-12.8925
-12.9213
-12.9513
-12.9842
-13.0171
-13.0491
-13.0806
-13.1116
-13.1418
-13.1711
-13.1997
-13.2275
-13.2544
-13.2806
-13.3059
-13.3306
-13.3546
-13.3781
-13.401
-13.4235
-13.4456
-13.4674
-13.4891
-13.5108
-13.5326
-13.555
-13.5782
-13.6029
-13.6295
-13.659
-13.6909
-12.9119
-12.9041
-12.9195
-12.944
-12.9692
-12.9974
-13.0269
-13.0566
-13.0863
-13.1159
-13.1448
-13.1732
-13.201
-13.228
-13.2543
-13.2799
-13.3048
-13.3291
-13.3528
-13.3759
-13.3987
-13.421
-13.443
-13.4648
-13.4865
-13.5082
-13.5302
-13.5526
-13.5759
-13.6003
-13.6263
-13.6542
-13.6836
-12.9248
-12.9209
-12.933
-12.9546
-12.9785
-13.0053
-13.0337
-13.0622
-13.0909
-13.1194
-13.1474
-13.175
-13.202
-13.2284
-13.2541
-13.2792
-13.3037
-13.3276
-13.351
-13.3739
-13.3964
-13.4185
-13.4404
-13.4621
-13.4837
-13.5054
-13.5273
-13.5497
-13.5727
-13.5967
-13.6218
-13.6481
-13.6753
-12.9383
-12.9377
-12.949
-12.9685
-12.9906
-13.0153
-13.0417
-13.0687
-13.0959
-13.1232
-13.1503
-13.1769
-13.2031
-13.2288
-13.2539
-13.2785
-13.3025
-13.326
-13.349
-13.3716
-13.3938
-13.4157
-13.4374
-13.4589
-13.4804
-13.5019
-13.5236
-13.5457
-13.5684
-13.5917
-13.6158
-13.6406
-13.6659
-12.9518
-12.9529
-12.9632
-12.9807
-13.0012
-13.0242
-13.0491
-13.0747
-13.1008
-13.1269
-13.153
-13.1788
-13.2042
-13.2292
-13.2537
-13.2777
-13.3012
-13.3243
-13.347
-13.3692
-13.3911
-13.4128
-13.4342
-13.4554
-13.4767
-13.4979
-13.5194
-13.5411
-13.5632
-13.5858
-13.6089
-13.6324
-13.656
-12.9651
-12.967
-12.9768
-12.9927
-13.0117
-13.0332
-13.0565
-13.0808
-13.1056
-13.1307
-13.1558
-13.1807
-13.2053
-13.2296
-13.2534
-13.2769
-13.2999
-13.3225
-13.3448
-13.3667
-13.3882
-13.4095
-13.4306
-13.4516
-13.4725
-13.4935
-13.5145
-13.5358
-13.5573
-13.5791
-13.6011
-13.6233
-13.6455
-12.9779
-12.9803
-12.9895
-13.0041
-13.0217
-13.0418
-13.0637
-13.0867
-13.1104
-13.1344
-13.1585
-13.1825
-13.2064
-13.2299
-13.2531
-13.276
-13.2985
-13.3207
-13.3425
-13.3639
-13.3851
-13.4061
-13.4268
-13.4475
-13.468
-13.4885
-13.5091
-13.5298
-13.5506
-13.5716
-13.5927
-13.6137
-13.6346
-12.9901
-12.9927
-13.0014
-13.0149
-13.0313
-13.0501
-13.0707
-13.0925
-13.115
-13.138
-13.1611
-13.1843
-13.2074
-13.2302
-13.2528
-13.2751
-13.2971
-13.3187
-13.34
-13.3611
-13.3818
-13.4024
-13.4228
-13.443
-13.4631
-13.4832
-13.5032
-13.5233
-13.5434
-13.5635
-13.5836
-13.6036
-13.6234
-13.0018
-13.0044
-13.0126
-13.025
-13.0404
-13.058
-13.0774
-13.098
-13.1195
-13.1414
-13.1637
-13.186
-13.2083
-13.2304
-13.2524
-13.2741
-13.2955
-13.3166
-13.3375
-13.358
-13.3784
-13.3985
-13.4184
-13.4382
-13.4578
-13.4773
-13.4968
-13.5163
-13.5356
-13.5549
-13.5741
-13.5931
-13.6118
-13.0127
-13.0153
-13.023
-13.0346
-13.0489
-13.0655
-13.0838
-13.1033
-13.1238
-13.1447
-13.1661
-13.1876
-13.2091
-13.2305
-13.2518
-13.2729
-13.2938
-13.3144
-13.3347
-13.3548
-13.3747
-13.3943
-13.4137
-13.433
-13.4521
-13.4711
-13.49
-13.5088
-13.5274
-13.5459
-13.5642
-13.5822
-13.5999
-13.023
-13.0254
-13.0327
-13.0436
-13.0569
-13.0725
-13.0898
-13.1083
-13.1278
-13.1478
-13.1683
-13.189
-13.2098
-13.2305
-13.2512
-13.2716
-13.2919
-13.312
-13.3318
-13.3514
-13.3707
-13.3899
-13.4088
-13.4275
-13.4461
-13.4645
-13.4828
-13.5008
-13.5187
-13.5364
-13.5538
-13.571
-13.5877
-13.0325
-13.0348
-13.0417
-13.0518
-13.0644
-13.079
-13.0954
-13.113
-13.1315
-13.1507
-13.1703
-13.1903
-13.2103
-13.2303
-13.2503
-13.2702
-13.2899
-13.3094
-13.3287
-13.3477
-13.3666
-13.3852
-13.4036
-13.4218
-13.4398
-13.4576
-13.4751
-13.4925
-13.5097
-13.5265
-13.5431
-13.5594
-13.5753
-13.0413
-13.0435
-13.05
-13.0595
-13.0713
-13.0851
-13.1005
-13.1172
-13.1349
-13.1533
-13.1721
-13.1913
-13.2106
-13.23
-13.2493
-13.2686
-13.2877
-13.3066
-13.3254
-13.3439
-13.3622
-13.3802
-13.3981
-13.4157
-13.4331
-13.4503
-13.4672
-13.4838
-13.5002
-13.5164
-13.5321
-13.5476
-13.5626
-13.0493
-13.0514
-13.0575
-13.0664
-13.0775
-13.0905
-13.1052
-13.1211
-13.138
-13.1555
-13.1736
-13.1921
-13.2107
-13.2294
-13.2481
-13.2668
-13.2853
-13.3037
-13.3218
-13.3398
-13.3575
-13.3751
-13.3923
-13.4093
-13.4261
-13.4426
-13.4589
-13.4749
-13.4905
-13.5059
-13.5209
-13.5355
-13.5497
-13.0564
-13.0584
-13.0642
-13.0726
-13.0831
-13.0954
-13.1094
-13.1245
-13.1406
-13.1575
-13.1748
-13.1926
-13.2105
-13.2286
-13.2467
-13.2648
-13.2827
-13.3005
-13.3181
-13.3355
-13.3527
-13.3696
-13.3863
-13.4027
-13.4189
-13.4347
-13.4503
-13.4656
-13.4805
-13.4951
-13.5093
-13.5232
-13.5366
-13.0628
-13.0647
-13.0701
-13.0781
-13.088
-13.0997
-13.113
-13.1274
-13.1428
-13.159
-13.1757
-13.1927
-13.2101
-13.2275
-13.245
-13.2625
-13.2799
-13.2971
-13.3141
-13.331
-13.3476
-13.3639
-13.38
-13.3958
-13.4114
-13.4266
-13.4415
-13.4561
-13.4703
-13.4841
-13.4976
-13.5106
-13.5233
-13.0684
-13.0701
-13.0753
-13.0828
-13.0922
-13.1034
-13.116
-13.1298
-13.1446
-13.1601
-13.1762
-13.1926
-13.2093
-13.2262
-13.2431
-13.26
-13.2768
-13.2935
-13.31
-13.3262
-13.3423
-13.358
-13.3735
-13.3888
-13.4036
-13.4182
-13.4324
-13.4463
-13.4598
-13.473
-13.4857
-13.498
-13.5099
-13.073
-13.0747
-13.0796
-13.0867
-13.0957
-13.1063
-13.1184
-13.1316
-13.1458
-13.1607
-13.1761
-13.192
-13.2082
-13.2245
-13.2408
-13.2572
-13.2734
-13.2895
-13.3055
-13.3212
-13.3367
-13.3519
-13.3668
-13.3814
-13.3957
-13.4096
-13.4232
-13.4364
-13.4492
-13.4616
-13.4736
-13.4852
-13.4963
-13.0768
-13.0784
-13.083
-13.0899
-13.0984
-13.1086
-13.1202
-13.1329
-13.1465
-13.1609
-13.1759
-13.1912
-13.2068
-13.2226
-13.2384
-13.2542
-13.2699
-13.2855
-13.3009
-13.3161
-13.331
-13.3456
-13.36
-13.374
-13.3876
-13.4009
-13.4138
-13.4264
-13.4385
-13.4502
-13.4615
-13.4724
-13.4828
-13.0796
-13.0812
-13.0855
-13.092
-13.1002
-13.1099
-13.121
-13.1332
-13.1464
-13.1603
-13.1747
-13.1896
-13.2047
-13.22
-13.2353
-13.2507
-13.2659
-13.281
-13.2959
-13.3105
-13.3249
-13.339
-13.3527
-13.3662
-13.3792
-13.3919
-13.4042
-13.4161
-13.4276
-13.4387
-13.4493
-13.4595
-13.4692
-13.0815
-13.083
-13.0873
-13.0935
-13.1014
-13.1109
-13.1217
-13.1336
-13.1464
-13.1598
-13.1738
-13.1882
-13.2029
-13.2177
-13.2326
-13.2474
-13.2621
-13.2767
-13.2911
-13.3052
-13.319
-13.3326
-13.3458
-13.3586
-13.3711
-13.3831
-13.3948
-13.4061
-13.4169
-13.4273
-13.4373
-13.4468
-13.4558
-13.0824
-13.0837
-13.0875
-13.0933
-13.1007
-13.1097
-13.1201
-13.1316
-13.144
-13.1572
-13.1709
-13.185
-13.1993
-13.2138
-13.2283
-13.2428
-13.2571
-13.2713
-13.2852
-13.2989
-13.3123
-13.3253
-13.338
-13.3504
-13.3623
-13.3738
-13.3849
-13.3956
-13.4059
-13.4156
-13.425
-13.4339
-13.4423
-13.0825
-13.084
-13.0881
-13.094
-13.1015
-13.1104
-13.1207
-13.132
-13.1441
-13.1569
-13.1702
-13.1839
-13.1978
-13.2118
-13.2258
-13.2398
-13.2536
-13.2673
-13.2807
-13.2938
-13.3067
-13.3191
-13.3313
-13.343
-13.3544
-13.3653
-13.3758
-13.3859
-13.3955
-13.4046
-13.4133
-13.4216
-13.4293
-13.0807
-13.0813
-13.0842
-13.089
-13.0958
-13.1043
-13.1143
-13.1255
-13.1376
-13.1505
-13.1638
-13.1775
-13.1914
-13.2053
-13.2193
-13.2331
-13.2468
-13.2603
-13.2734
-13.2863
-13.2989
-13.311
-13.3228
-13.3342
-13.3451
-13.3556
-13.3656
-13.3752
-13.3843
-13.393
-13.4012
-13.4089
-13.4161
-13.0801
-13.0826
-13.0871
-13.0929
-13.1002
-13.1087
-13.1185
-13.1293
-13.1409
-13.1531
-13.1658
-13.1789
-13.1921
-13.2053
-13.2186
-13.2318
-13.2448
-13.2576
-13.2702
-13.2824
-13.2943
-13.3058
-13.317
-13.3277
-13.338
-13.3479
-13.3573
-13.3663
-13.3748
-13.3828
-13.3903
-13.3974
-13.404
-13.0722
-13.0701
-13.0703
-13.074
-13.0806
-13.0894
-13.1
-13.1119
-13.1246
-13.138
-13.1518
-13.1657
-13.1798
-13.1938
-13.2076
-13.2213
-13.2347
-13.2477
-13.2604
-13.2728
-13.2847
-13.2962
-13.3073
-13.3179
-13.328
-13.3376
-13.3468
-13.3555
-13.3636
-13.3713
-13.3784
-13.3851
-13.3913
-13.0799
-13.0864
-13.0921
-13.097
-13.1027
-13.1099
-13.1186
-13.1284
-13.1391
-13.1504
-13.1623
-13.1745
-13.1869
-13.1994
-13.2119
-13.2243
-13.2365
-13.2485
-13.2601
-13.2715
-13.2825
-13.2932
-13.3034
-13.3132
-13.3226
-13.3315
-13.3399
-13.3479
-13.3553
-13.3623
-13.3688
-13.3749
-13.3804
-13.0479
-13.0344
-13.0294
-13.0345
-13.0445
-13.057
-13.071
-13.0859
-13.1014
-13.117
-13.1327
-13.1481
-13.1633
-13.1782
-13.1927
-13.2068
-13.2204
-13.2336
-13.2462
-13.2584
-13.2701
-13.2812
-13.2919
-13.302
-13.3115
-13.3206
-13.3291
-13.337
-13.3445
-13.3513
-13.3577
-13.3636
-13.3689
-13.1018
-13.1221
-13.1265
-13.1219
-13.1193
-13.1214
-13.1265
-13.1335
-13.1419
-13.1514
-13.1617
-13.1725
-13.1837
-13.1951
-13.2066
-13.218
-13.2292
-13.2403
-13.2511
-13.2616
-13.2717
-13.2815
-13.2909
-13.2998
-13.3083
-13.3163
-13.3239
-13.331
-13.3376
-13.3437
-13.3493
-13.3545
-13.3591
-12.979
-12.9294
-12.9175
-12.9434
-12.9715
-12.9958
-13.0195
-13.0426
-13.0646
-13.0854
-13.1052
-13.1239
-13.1418
-13.1587
-13.1748
-13.1901
-13.2047
-13.2185
-13.2317
-13.2442
-13.256
-13.2672
-13.2777
-13.2877
-13.297
-13.3057
-13.3138
-13.3213
-13.3282
-13.3346
-13.3404
-13.3456
-13.3503
-13.2272
-13.2621
-13.2312
-13.1887
-13.1599
-13.1488
-13.1459
-13.1466
-13.1503
-13.1563
-13.1639
-13.1725
-13.1819
-13.1917
-13.2018
-13.212
-13.2221
-13.2322
-13.242
-13.2517
-13.261
-13.27
-13.2785
-13.2867
-13.2945
-13.3018
-13.3087
-13.3151
-13.321
-13.3264
-13.3314
-13.3359
-13.3399
-12.735
-12.6153
-12.6776
-12.7791
-12.853
-12.9048
-12.9485
-12.9866
-13.0198
-13.0491
-13.0752
-13.0989
-13.1205
-13.1404
-13.1588
-13.1758
-13.1917
-13.2066
-13.2205
-13.2335
-13.2457
-13.2571
-13.2677
-13.2776
-13.2868
-13.2954
-13.3033
-13.3105
-13.3171
-13.3231
-13.3285
-13.3332
-13.3374
-13.9495
-13.6106
-13.3468
-13.2298
-13.1796
-13.1543
-13.1392
-13.1329
-13.133
-13.137
-13.1435
-13.1516
-13.1609
-13.1709
-13.1813
-13.1918
-13.2023
-13.2127
-13.223
-13.2329
-13.2425
-13.2518
-13.2606
-13.269
-13.2769
-13.2843
-13.2913
-13.2977
-13.3037
-13.3091
-13.3141
-13.3186
-13.3225
-11.4459
-12.1525
-12.5571
-12.7094
-12.8141
-12.8964
-12.9559
-13.0008
-13.0373
-13.0675
-13.0932
-13.1157
-13.1357
-13.1539
-13.1705
-13.1859
-13.2002
-13.2136
-13.2261
-13.2378
-13.2488
-13.2591
-13.2687
-13.2777
-13.286
-13.2938
-13.3009
-13.3074
-13.3133
-13.3186
-13.3234
-13.3276
-13.3313
-13.4277
-13.6757
-13.8074
-13.897
-13.9619
-14.0086
-14.0439
-14.0776
-14.1118
-14.1493
-14.1912
-14.2372
-14.2873
-14.3409
-14.3969
-14.4541
-14.5116
-14.5682
-14.623
-14.6752
-14.724
-14.7687
-14.809
-14.8442
-14.8738
-14.8975
-14.9144
-14.924
-14.9253
-14.9174
-14.8993
-14.8701
-14.8285
-14.7736
-14.7043
-14.6195
-14.5182
-14.3995
-14.2626
-14.1068
-13.9313
-13.7357
-13.5195
-13.2826
-13.0247
-12.7459
-12.4464
-12.1267
-11.7874
-11.4295
-11.054
-10.6623
-10.2559
-9.83662
-9.40645
-8.96749
-8.52201
-8.07237
-7.62099
-7.17032
-6.72279
-6.28078
-5.84658
-5.42234
-5.01005
-4.61153
-4.22836
-3.86191
-3.51329
-3.18338
-2.8728
-2.58195
-2.31099
-2.05989
-1.82841
-1.61617
-1.42262
-1.24712
-1.08891
-0.947167
-0.821011
-0.709522
-0.611753
-0.526738
-0.453507
-0.391061
-0.338429
-0.294554
-0.258494
-0.229016
-0.205365
-0.185713
-0.170192
-0.154854
-0.143501
-0.12438
-0.115667
-0.0765961
-0.0800054
0.0212484
-14.0168
-14.1543
-14.0954
-14.028
-14.0015
-13.9853
-13.9775
-13.9875
-14.0105
-14.0462
-14.0934
-14.149
-14.2102
-14.2748
-14.3403
-14.4051
-14.4677
-14.5271
-14.5826
-14.634
-14.681
-14.7236
-14.7615
-14.7944
-14.8221
-14.8438
-14.8591
-14.867
-14.8667
-14.8574
-14.8379
-14.8072
-14.7643
-14.7082
-14.6378
-14.552
-14.45
-14.3309
-14.1938
-14.038
-13.8629
-13.6679
-13.4528
-13.2172
-12.961
-12.6843
-12.3874
-12.0706
-11.7346
-11.3804
-11.0089
-10.6216
-10.2199
-9.80554
-9.38049
-8.94679
-8.50663
-8.0623
-7.61616
-7.1706
-6.72798
-6.29064
-5.86082
-5.44063
-5.03205
-4.63687
-4.25664
-3.89274
-3.54625
-3.21807
-2.90881
-2.61888
-2.34845
-2.09752
-1.86586
-1.65311
-1.45877
-1.28221
-1.12271
-0.979482
-0.851667
-0.73838
-0.638708
-0.551713
-0.476455
-0.411966
-0.357296
-0.311421
-0.273408
-0.242061
-0.216604
-0.195291
-0.178114
-0.161435
-0.148431
-0.128665
-0.117605
-0.0802481
-0.0772999
0.0117414
-13.7333
-13.7424
-13.7642
-13.8141
-13.8697
-13.9157
-13.9562
-13.9881
-14.0238
-14.0602
-14.0997
-14.1426
-14.1895
-14.24
-14.2933
-14.3485
-14.4046
-14.4605
-14.5152
-14.5674
-14.6163
-14.6609
-14.7006
-14.7349
-14.7631
-14.7848
-14.7993
-14.806
-14.8042
-14.7932
-14.772
-14.7396
-14.6952
-14.6377
-14.5661
-14.4794
-14.3767
-14.2571
-14.1198
-13.9641
-13.7895
-13.5954
-13.3814
-13.1474
-12.8932
-12.6188
-12.3246
-12.011
-11.6786
-11.3283
-10.9611
-10.5783
-10.1814
-9.7721
-9.35223
-8.9238
-8.48895
-8.04993
-7.60903
-7.16859
-6.73095
-6.29838
-5.87309
-5.45716
-5.05252
-4.66092
-4.2839
-3.9228
-3.57871
-3.25249
-2.94477
-2.65595
-2.38624
-2.13562
-1.90392
-1.6908
-1.49577
-1.31824
-1.15753
-1.01288
-0.883452
-0.768403
-0.666844
-0.577865
-0.500554
-0.433972
-0.377195
-0.329227
-0.289154
-0.255817
-0.228424
-0.205317
-0.186348
-0.168201
-0.153416
-0.132909
-0.119385
-0.0837274
-0.0742825
0.00236001
-13.7869
-13.8966
-13.9563
-13.9741
-13.9814
-13.9863
-13.9914
-14.0014
-14.0165
-14.0443
-14.0801
-14.1226
-14.1706
-14.2224
-14.2762
-14.3305
-14.3839
-14.4355
-14.4844
-14.5302
-14.5725
-14.6108
-14.645
-14.6745
-14.6989
-14.7176
-14.7298
-14.7348
-14.7316
-14.7194
-14.6971
-14.6637
-14.6184
-14.5599
-14.4875
-14.4002
-14.297
-14.1771
-14.0399
-13.8845
-13.7105
-13.5174
-13.3048
-13.0725
-12.8203
-12.5485
-12.2571
-11.9467
-11.6179
-11.2716
-10.9086
-10.5304
-10.1384
-9.73415
-9.31953
-8.89648
-8.46711
-8.0336
-7.59821
-7.16321
-6.73088
-6.30344
-5.88305
-5.47174
-5.07139
-4.68371
-4.31021
-3.95219
-3.61074
-3.2867
-2.9807
-2.69317
-2.4243
-2.17412
-1.94247
-1.72904
-1.5334
-1.35497
-1.19311
-1.04708
-0.916092
-0.799323
-0.695911
-0.604971
-0.525615
-0.456929
-0.398012
-0.347896
-0.305685
-0.270261
-0.240818
-0.215794
-0.194902
-0.175159
-0.158469
-0.13711
-0.121027
-0.0869936
-0.0710453
-0.00672241
-13.7542
-13.8014
-13.8183
-13.833
-13.8588
-13.8883
-13.918
-13.9485
-13.9877
-14.0246
-14.0633
-14.1055
-14.1507
-14.1979
-14.2465
-14.2957
-14.3448
-14.393
-14.4395
-14.4836
-14.5245
-14.5617
-14.5944
-14.6221
-14.6442
-14.6601
-14.6692
-14.6708
-14.6643
-14.6488
-14.6234
-14.5872
-14.5394
-14.4788
-14.4047
-14.316
-14.2118
-14.0914
-13.9539
-13.7988
-13.6253
-13.4331
-13.2218
-12.9911
-12.7411
-12.4718
-12.1834
-11.8763
-11.5513
-11.209
-10.8506
-10.4772
-10.0902
-9.69136
-9.28232
-8.86502
-8.44151
-8.01392
-7.58443
-7.15527
-6.72865
-6.30674
-5.89162
-5.48527
-5.08952
-4.70603
-4.33628
-3.98154
-3.64289
-3.32116
-3.01699
-2.7308
-2.46284
-2.21314
-1.98158
-1.76788
-1.57164
-1.39233
-1.22933
-1.08194
-0.949411
-0.83094
-0.725693
-0.632811
-0.551425
-0.480643
-0.419581
-0.367297
-0.322905
-0.285331
-0.253755
-0.226713
-0.203787
-0.182331
-0.163622
-0.1413
-0.12258
-0.0900692
-0.067695
-0.0153909
-13.7435
-13.7976
-13.8406
-13.8749
-13.9039
-13.9281
-13.9502
-13.9717
-13.9904
-14.0191
-14.0526
-14.0901
-14.1312
-14.1751
-14.2208
-14.2673
-14.3134
-14.3584
-14.4013
-14.4415
-14.4785
-14.5115
-14.5403
-14.5642
-14.5829
-14.5956
-14.6019
-14.6009
-14.5919
-14.574
-14.5463
-14.508
-14.4581
-14.3957
-14.3198
-14.2296
-14.1243
-14.003
-13.865
-13.7097
-13.5365
-13.3449
-13.1348
-12.9057
-12.6578
-12.3909
-12.1055
-11.8019
-11.4806
-11.1426
-10.7889
-10.4205
-10.0389
-9.6457
-9.24255
-8.83133
-8.41402
-7.99268
-7.56945
-7.14646
-6.72586
-6.30975
-5.90013
-5.49893
-5.10793
-4.72874
-4.36283
-4.01143
-3.67561
-3.35621
-3.05388
-2.76906
-2.502
-2.25279
-2.02131
-1.80734
-1.6105
-1.4303
-1.26615
-1.1174
-0.983323
-0.863143
-0.756056
-0.661229
-0.577812
-0.504934
-0.441726
-0.387265
-0.340676
-0.300919
-0.267159
-0.23803
-0.212988
-0.189722
-0.168898
-0.145509
-0.124089
-0.0929785
-0.0643368
-0.0235241
-13.7311
-13.7753
-13.809
-13.8343
-13.8579
-13.8815
-13.9048
-13.9326
-13.9639
-13.9964
-14.0313
-14.0688
-14.1087
-14.1503
-14.193
-14.236
-14.2785
-14.3198
-14.3593
-14.3963
-14.4302
-14.4603
-14.4863
-14.5074
-14.5232
-14.533
-14.5362
-14.5321
-14.52
-14.499
-14.4685
-14.4274
-14.375
-14.3103
-14.2325
-14.1407
-14.0341
-13.9119
-13.7734
-13.6179
-13.4451
-13.2543
-13.0453
-12.8179
-12.5721
-12.3079
-12.0255
-11.7254
-11.4082
-11.0747
-10.7258
-10.3627
-9.9867
-9.59939
-9.20239
-8.79749
-8.38661
-7.97173
-7.55491
-7.13821
-6.72371
-6.31344
-5.90934
-5.51329
-5.12702
-4.75212
-4.39001
-4.04193
-3.70892
-3.39183
-3.09133
-2.80786
-2.54171
-2.29297
-2.06158
-1.84734
-1.64989
-1.4688
-1.30351
-1.15339
-1.01775
-0.89585
-0.786912
-0.690127
-0.604666
-0.529679
-0.464312
-0.407662
-0.35886
-0.316899
-0.280927
-0.24967
-0.222456
-0.197311
-0.174303
-0.149758
-0.125602
-0.0957528
-0.061081
-0.0310187
-13.7192
-13.7591
-13.7936
-13.8233
-13.8513
-13.8783
-13.905
-13.9288
-13.9558
-13.9847
-14.0163
-14.0507
-14.0874
-14.1257
-14.1652
-14.2049
-14.2442
-14.2824
-14.3186
-14.3523
-14.3829
-14.4098
-14.4325
-14.4503
-14.4629
-14.4695
-14.4696
-14.4624
-14.4474
-14.4237
-14.3904
-14.3468
-14.2921
-14.2253
-14.1456
-14.0521
-13.9442
-13.821
-13.6819
-13.5264
-13.3538
-13.1637
-12.9559
-12.7302
-12.4866
-12.225
-11.9458
-11.6494
-11.3363
-11.0073
-10.6634
-10.3057
-9.93542
-9.55407
-9.16325
-8.76468
-8.36021
-7.95175
-7.54129
-7.13082
-6.72235
-6.31784
-5.9192
-5.52824
-5.14665
-4.77598
-4.41763
-4.07283
-3.74261
-3.42782
-3.12913
-2.84701
-2.58177
-2.33351
-2.10222
-1.88771
-1.68967
-1.5077
-1.34127
-1.18978
-1.05259
-0.928967
-0.818172
-0.719419
-0.631902
-0.554792
-0.487248
-0.428392
-0.377358
-0.333173
-0.294965
-0.26155
-0.23213
-0.205062
-0.179827
-0.154059
-0.12716
-0.0984258
-0.0580335
-0.037806
-13.7073
-13.7434
-13.7759
-13.8045
-13.831
-13.8563
-13.8813
-13.9071
-13.9347
-13.964
-13.9952
-14.0284
-14.0632
-14.0993
-14.136
-14.1727
-14.2089
-14.2438
-14.2768
-14.3073
-14.3347
-14.3585
-14.378
-14.3929
-14.4024
-14.406
-14.4032
-14.3931
-14.3752
-14.3487
-14.3128
-14.2667
-14.2095
-14.1406
-14.059
-13.9641
-13.8549
-13.7309
-13.5913
-13.4356
-13.2634
-13.0741
-12.8676
-12.6437
-12.4022
-12.1434
-11.8674
-11.5746
-11.2657
-10.9413
-10.6023
-10.2499
-9.88526
-9.50982
-9.12511
-8.73279
-8.33465
-7.93252
-7.52833
-7.12401
-6.72149
-6.32268
-5.92943
-5.54349
-5.16653
-4.80005
-4.44544
-4.1039
-3.77646
-3.46397
-3.1671
-2.88634
-2.62201
-2.37425
-2.14307
-1.92831
-1.7297
-1.54686
-1.3793
-1.22647
-1.08773
-0.962392
-0.849743
-0.749021
-0.659442
-0.580197
-0.510465
-0.449385
-0.396102
-0.349673
-0.309208
-0.273612
-0.241964
-0.212941
-0.185459
-0.158418
-0.1288
-0.10103
-0.0552852
-0.0438614
-13.6954
-13.7285
-13.7595
-13.7879
-13.8147
-13.8407
-13.8662
-13.8919
-13.9185
-13.9464
-13.9758
-14.0068
-14.0392
-14.0725
-14.1063
-14.1401
-14.1731
-14.2049
-14.2347
-14.2621
-14.2864
-14.307
-14.3235
-14.3353
-14.3418
-14.3424
-14.3366
-14.3237
-14.3029
-14.2737
-14.2352
-14.1867
-14.1273
-14.0564
-13.9731
-13.8766
-13.7663
-13.6415
-13.5015
-13.3458
-13.1739
-12.9855
-12.7803
-12.5582
-12.319
-12.0628
-11.79
-11.5009
-11.1961
-10.8762
-10.5422
-10.195
-9.83597
-9.46637
-9.08769
-8.70154
-8.30964
-7.91377
-7.51577
-7.11752
-6.72088
-6.32771
-5.93979
-5.55884
-5.18647
-4.82416
-4.47327
-4.13498
-3.81032
-3.50013
-3.20509
-2.92571
-2.66231
-2.41508
-2.18402
-1.96904
-1.76988
-1.58619
-1.41753
-1.26335
-1.12308
-0.996038
-0.881542
-0.778853
-0.687212
-0.60583
-0.533901
-0.470588
-0.415041
-0.366353
-0.323614
-0.285819
-0.251928
-0.220929
-0.191195
-0.162842
-0.130558
-0.103593
-0.0529022
-0.0492037
-13.6833
-13.7141
-13.7435
-13.771
-13.7972
-13.8226
-13.8477
-13.8729
-13.8988
-13.9258
-13.954
-13.9833
-14.0136
-14.0446
-14.0757
-14.1066
-14.1367
-14.1655
-14.1922
-14.2165
-14.2377
-14.2553
-14.2687
-14.2775
-14.281
-14.2787
-14.27
-14.2542
-14.2308
-14.1989
-14.1579
-14.107
-14.0455
-13.9726
-13.8876
-13.7897
-13.6783
-13.5527
-13.4124
-13.2567
-13.0853
-12.8978
-12.6939
-12.4736
-12.2366
-11.9832
-11.7136
-11.4281
-11.1274
-10.812
-10.4828
-10.1409
-9.78734
-9.42349
-9.05077
-8.67072
-8.28499
-7.8953
-7.50343
-7.11118
-6.72037
-6.33278
-5.95015
-5.57415
-5.20635
-4.84819
-4.50101
-4.16597
-3.84409
-3.53621
-3.24302
-2.96503
-2.70259
-2.4559
-2.225
-2.00981
-1.81012
-1.62561
-1.45586
-1.30037
-1.15857
-1.02984
-0.9135
-0.808852
-0.715151
-0.63163
-0.557502
-0.491949
-0.434131
-0.383173
-0.338151
-0.298145
-0.262002
-0.229013
-0.197034
-0.167338
-0.13246
-0.106138
-0.050919
-0.053882
-13.671
-13.6998
-13.7277
-13.7544
-13.78
-13.8049
-13.8296
-13.8542
-13.8794
-13.9052
-13.9319
-13.9593
-13.9875
-14.016
-14.0446
-14.0727
-14.0999
-14.1256
-14.1494
-14.1706
-14.1888
-14.2033
-14.2138
-14.2196
-14.2201
-14.2149
-14.2034
-14.1849
-14.1587
-14.1242
-14.0808
-14.0276
-13.964
-13.8892
-13.8026
-13.7034
-13.5909
-13.4647
-13.324
-13.1684
-12.9975
-12.8109
-12.6084
-12.3898
-12.1551
-11.9044
-11.638
-11.3561
-11.0594
-10.7484
-10.4241
-10.0873
-9.73924
-9.38109
-9.01426
-8.64024
-8.26061
-7.87703
-7.49122
-7.10491
-6.71987
-6.33781
-5.96044
-5.58935
-5.22609
-4.87207
-4.52859
-4.1968
-3.8777
-3.57215
-3.28082
-3.00424
-2.74278
-2.49665
-2.26594
-2.05057
-1.85038
-1.66506
-1.49424
-1.33745
-1.19414
-1.06373
-0.945565
-0.838962
-0.743206
-0.657549
-0.581221
-0.513426
-0.453333
-0.4001
-0.352789
-0.310566
-0.27217
-0.237183
-0.202974
-0.171909
-0.134521
-0.108676
-0.0493368
-0.0579586
-13.6586
-13.6857
-13.7122
-13.7378
-13.7626
-13.7868
-13.8107
-13.8346
-13.8588
-13.8834
-13.9086
-13.9343
-13.9604
-13.9867
-14.0127
-14.0382
-14.0626
-14.0854
-14.1062
-14.1245
-14.1396
-14.1512
-14.1587
-14.1616
-14.1593
-14.1512
-14.1369
-14.1156
-14.0868
-14.0498
-14.004
-13.9486
-13.8829
-13.8063
-13.7181
-13.6176
-13.5042
-13.3773
-13.2364
-13.0809
-12.9105
-12.7248
-12.5236
-12.3068
-12.0744
-11.8264
-11.5631
-11.2849
-10.9921
-10.6856
-10.366
-10.0343
-9.69163
-9.33912
-8.97811
-8.61004
-8.23643
-7.8589
-7.47908
-7.09866
-6.71933
-6.34276
-5.97059
-5.60439
-5.24565
-4.89575
-4.55596
-4.22741
-3.91111
-3.60789
-3.31843
-3.04328
-2.78282
-2.53729
-2.30678
-2.09126
-1.89059
-1.70449
-1.53262
-1.37455
-1.22975
-1.09767
-0.977687
-0.869139
-0.771332
-0.683543
-0.605017
-0.53498
-0.472612
-0.417102
-0.367502
-0.323059
-0.282414
-0.245426
-0.209009
-0.17655
-0.136742
-0.111208
-0.0481313
-0.0614968
-13.646
-13.6715
-13.6966
-13.7211
-13.745
-13.7685
-13.7916
-13.8146
-13.8377
-13.8611
-13.8848
-13.9087
-13.9328
-13.9568
-13.9804
-14.0032
-14.0249
-14.0449
-14.0628
-14.0781
-14.0904
-14.0991
-14.1037
-14.1036
-14.0985
-14.0876
-14.0705
-14.0466
-14.0152
-13.9757
-13.9275
-13.87
-13.8023
-13.724
-13.6343
-13.5325
-13.4182
-13.2907
-13.1495
-12.9941
-12.8243
-12.6395
-12.4397
-12.2247
-11.9946
-11.7493
-11.4891
-11.2144
-10.9256
-10.6234
-10.3085
-9.98189
-9.64451
-9.29755
-8.94229
-8.5801
-8.21245
-7.84089
-7.46699
-7.09239
-6.71872
-6.34759
-5.98058
-5.61923
-5.26497
-4.91917
-4.58306
-4.25776
-3.94425
-3.64337
-3.3558
-3.0821
-2.82267
-2.57775
-2.34747
-2.13182
-1.93069
-1.74384
-1.57095
-1.41161
-1.26534
-1.13161
-1.00982
-0.899337
-0.799488
-0.709572
-0.628852
-0.556576
-0.491935
-0.43415
-0.382264
-0.335603
-0.292717
-0.253727
-0.215129
-0.181253
-0.139117
-0.11373
-0.0472666
-0.0645584
-13.6331
-13.6572
-13.6811
-13.7045
-13.7274
-13.7499
-13.7721
-13.7941
-13.8161
-13.8381
-13.8602
-13.8824
-13.9045
-13.9263
-13.9475
-13.9678
-13.9868
-14.0041
-14.0192
-14.0317
-14.0411
-14.0469
-14.0486
-14.0458
-14.0378
-14.0242
-14.0044
-13.9778
-13.9439
-13.9021
-13.8516
-13.7919
-13.7223
-13.6423
-13.5511
-13.4482
-13.333
-13.2049
-13.0635
-12.9083
-12.7389
-12.5552
-12.3567
-12.1435
-11.9156
-11.673
-11.4159
-11.1447
-10.8598
-10.5619
-10.2517
-9.93002
-9.59789
-9.25641
-8.90682
-8.55043
-8.18866
-7.82299
-7.45495
-7.0861
-6.71802
-6.35227
-5.99038
-5.63383
-5.28404
-4.94231
-4.60987
-4.2878
-3.97708
-3.67855
-3.39288
-3.12065
-2.86225
-2.61797
-2.38795
-2.1722
-1.97064
-1.78305
-1.60916
-1.44858
-1.30087
-1.1655
-1.04192
-0.929511
-0.82763
-0.735595
-0.652688
-0.578178
-0.511269
-0.451214
-0.397048
-0.348174
-0.303059
-0.262073
-0.221321
-0.186011
-0.141635
-0.116241
-0.0467047
-0.0672036
-13.6201
-13.6429
-13.6655
-13.6877
-13.7096
-13.731
-13.7522
-13.7731
-13.7939
-13.8146
-13.8352
-13.8556
-13.8757
-13.8953
-13.9142
-13.9321
-13.9485
-13.9631
-13.9755
-13.9852
-13.9918
-13.9948
-13.9937
-13.988
-13.9773
-13.961
-13.9386
-13.9095
-13.8731
-13.8289
-13.7762
-13.7144
-13.643
-13.5613
-13.4687
-13.3646
-13.2486
-13.12
-12.9784
-12.8234
-12.6546
-12.4718
-12.2747
-12.0633
-11.8376
-11.5976
-11.3436
-11.0758
-10.7948
-10.5012
-10.1955
-9.87874
-9.55178
-9.21571
-8.8717
-8.52103
-8.16506
-7.8052
-7.44294
-7.07977
-6.71721
-6.35678
-5.99996
-5.64818
-5.30281
-4.96512
-4.63633
-4.31748
-4.00956
-3.71337
-3.42962
-3.15886
-2.90153
-2.6579
-2.42816
-2.21233
-2.01036
-1.82208
-1.64721
-1.48541
-1.33627
-1.19928
-1.07393
-0.959614
-0.855714
-0.761571
-0.676485
-0.59975
-0.530581
-0.468264
-0.411827
-0.360749
-0.313421
-0.270445
-0.227571
-0.190812
-0.144283
-0.11874
-0.0464097
-0.0694918
-13.6068
-13.6284
-13.6497
-13.6708
-13.6916
-13.712
-13.732
-13.7518
-13.7713
-13.7906
-13.8096
-13.8282
-13.8464
-13.864
-13.8806
-13.896
-13.9099
-13.9219
-13.9316
-13.9386
-13.9425
-13.9427
-13.9389
-13.9306
-13.9172
-13.8982
-13.8732
-13.8416
-13.8028
-13.7562
-13.7014
-13.6377
-13.5644
-13.4811
-13.3872
-13.282
-13.1651
-13.036
-12.8943
-12.7395
-12.5713
-12.3894
-12.1937
-11.9841
-11.7606
-11.5232
-11.2722
-11.0079
-10.7307
-10.4412
-10.1401
-9.8281
-9.50623
-9.17548
-8.83697
-8.49193
-8.14166
-7.78754
-7.43096
-7.0734
-6.7163
-6.36112
-6.00931
-5.66224
-5.32125
-4.98758
-4.6624
-4.34677
-4.04162
-3.74778
-3.46595
-3.19669
-2.94043
-2.69748
-2.46804
-2.25216
-2.04981
-1.86085
-1.68503
-1.52204
-1.37149
-1.23291
-1.1058
-0.989595
-0.883691
-0.787454
-0.700203
-0.621254
-0.549835
-0.485267
-0.426573
-0.373304
-0.323781
-0.278825
-0.233864
-0.195644
-0.147045
-0.121227
-0.0463469
-0.0714799
-13.5933
-13.6137
-13.6339
-13.6538
-13.6734
-13.6927
-13.7116
-13.7301
-13.7483
-13.7661
-13.7836
-13.8005
-13.8168
-13.8322
-13.8467
-13.8598
-13.8712
-13.8807
-13.8878
-13.8922
-13.8933
-13.8909
-13.8844
-13.8734
-13.8574
-13.8358
-13.8083
-13.7742
-13.7331
-13.6843
-13.6274
-13.5617
-13.4867
-13.4018
-13.3066
-13.2004
-13.0827
-12.9532
-12.8113
-12.6567
-12.4891
-12.3082
-12.1139
-11.906
-11.6846
-11.4498
-11.2018
-10.9409
-10.6674
-10.382
-10.0854
-9.77814
-9.46127
-9.13575
-8.80265
-8.46315
-8.11849
-7.77
-7.41904
-7.06699
-6.71527
-6.36528
-6.0184
-5.67599
-5.33934
-5.00965
-4.68806
-4.37561
-4.07324
-3.78174
-3.50183
-3.23406
-2.97889
-2.73664
-2.50752
-2.29162
-2.08892
-1.8993
-1.72256
-1.5584
-1.40647
-1.26632
-1.13748
-1.0194
-0.911512
-0.813197
-0.723796
-0.642648
-0.568995
-0.50219
-0.441254
-0.385809
-0.334113
-0.287193
-0.240179
-0.200494
-0.149901
-0.123701
-0.0464811
-0.0732217
-13.5797
-13.5989
-13.6179
-13.6367
-13.6551
-13.6732
-13.6909
-13.7082
-13.725
-13.7414
-13.7572
-13.7724
-13.7868
-13.8003
-13.8125
-13.8233
-13.8324
-13.8395
-13.844
-13.8458
-13.8444
-13.8394
-13.8302
-13.8166
-13.798
-13.774
-13.744
-13.7075
-13.6641
-13.6131
-13.5542
-13.4866
-13.4099
-13.3236
-13.227
-13.1198
-13.0015
-12.8715
-12.7295
-12.5751
-12.4081
-12.2282
-12.0352
-11.8291
-11.6099
-11.3776
-11.1325
-10.8749
-10.6052
-10.3238
-10.0315
-9.72891
-9.41696
-9.09657
-8.76878
-8.43471
-8.09557
-7.75262
-7.40716
-7.06054
-6.71412
-6.36923
-6.02724
-5.68942
-5.35705
-5.03129
-4.71326
-4.40398
-4.10435
-3.8152
-3.5372
-3.27093
-3.01687
-2.77533
-2.54655
-2.33064
-2.12761
-1.93736
-1.75973
-1.59443
-1.44114
-1.29945
-1.1689
-1.04898
-0.939122
-0.83875
-0.747218
-0.663888
-0.588019
-0.518994
-0.455837
-0.398235
-0.34439
-0.295524
-0.246493
-0.205345
-0.152826
-0.126162
-0.0467753
-0.0747683
-13.5658
-13.5839
-13.6017
-13.6194
-13.6367
-13.6536
-13.67
-13.686
-13.7015
-13.7164
-13.7306
-13.7441