/*--------------------------------*- C++ -*----------------------------------*\
| =========                 |                                                 |
| \\      /  F ield         | OpenFOAM: The Open Source CFD Toolbox           |
|  \\    /   O peration     | Version:  2.1.1                                 |
|   \\  /    A nd           | Web:      www.OpenFOAM.org                      |
|    \\/     M anipulation  |                                                 |
\*---------------------------------------------------------------------------*/
FoamFile
{
    version     2.0;
    format      ascii;
    class       surfaceScalarField;
    location    "0.175";
    object      phi;
}
// * * * * * * * * * * * * * * * * * * * * * * * * * * * * * * * * * * * * * //

dimensions      [0 3 -1 0 0 0 0];

internalField   nonuniform List<scalar> 
13452
(
6.89922e-05
-5.04978e-07
6.88133e-05
1.78924e-07
6.82016e-05
6.11719e-07
6.72537e-05
9.47874e-07
6.61766e-05
1.07715e-06
6.50843e-05
1.09225e-06
6.40187e-05
1.06559e-06
6.29971e-05
1.02161e-06
6.20278e-05
9.69285e-07
6.11143e-05
9.13499e-07
6.02577e-05
8.56674e-07
5.94574e-05
8.00261e-07
5.87122e-05
7.45209e-07
5.802e-05
6.92182e-07
5.73784e-05
6.41627e-07
5.67846e-05
5.93828e-07
5.62356e-05
5.48941e-07
5.57286e-05
5.07024e-07
5.52605e-05
4.68063e-07
5.48285e-05
4.31997e-07
5.44298e-05
3.98733e-07
5.40616e-05
3.68169e-07
5.37214e-05
3.40209e-07
5.34066e-05
3.14793e-07
5.31147e-05
2.91922e-07
5.2843e-05
2.71723e-07
5.25884e-05
2.54549e-07
5.23471e-05
2.41286e-07
5.21136e-05
2.33585e-07
5.1877e-05
2.36524e-07
5.16188e-05
2.582e-07
5.12894e-05
3.2942e-07
5.12903e-07
5.07765e-05
7.01649e-05
-2.25969e-07
7.00411e-05
3.02796e-07
7.01816e-05
4.71166e-07
7.05088e-05
6.20683e-07
7.08592e-05
7.26812e-07
7.11578e-05
7.93562e-07
7.13822e-05
8.41192e-07
7.1534e-05
8.69847e-07
7.16211e-05
8.82222e-07
7.16523e-05
8.82298e-07
7.16359e-05
8.73022e-07
7.15795e-05
8.56724e-07
7.14895e-05
8.3521e-07
7.13717e-05
8.09949e-07
7.12312e-05
7.82117e-07
7.10724e-05
7.52654e-07
7.0899e-05
7.22312e-07
7.07143e-05
6.91681e-07
7.05212e-05
6.61221e-07
7.03219e-05
6.3129e-07
7.01185e-05
6.02162e-07
6.99126e-05
5.74058e-07
6.97056e-05
5.47165e-07
6.94987e-05
5.21663e-07
6.92929e-05
4.97772e-07
6.90888e-05
4.75771e-07
6.88872e-05
4.56184e-07
6.86888e-05
4.39655e-07
6.84944e-05
4.27988e-07
6.83089e-05
4.22114e-07
6.81377e-05
4.29359e-07
6.80279e-05
4.39234e-07
4.7865e-07
6.80621e-05
7.22816e-05
-5.10146e-08
7.23966e-05
1.87733e-07
7.25013e-05
3.66467e-07
7.25877e-05
5.3435e-07
7.26707e-05
6.43741e-07
7.27525e-05
7.11775e-07
7.28384e-05
7.55323e-07
7.29248e-05
7.83443e-07
7.30077e-05
7.99311e-07
7.30845e-05
8.05478e-07
7.31537e-05
8.039e-07
7.32142e-05
7.96151e-07
7.32659e-05
7.8351e-07
7.33088e-05
7.67098e-07
7.3343e-05
7.47857e-07
7.33691e-05
7.2658e-07
7.33875e-05
7.03921e-07
7.33988e-05
6.80419e-07
7.34035e-05
6.56511e-07
7.34022e-05
6.32552e-07
7.33955e-05
6.08836e-07
7.3384e-05
5.85609e-07
7.33681e-05
5.63093e-07
7.33482e-05
5.41509e-07
7.33249e-05
5.21115e-07
7.32984e-05
5.02222e-07
7.32693e-05
4.85339e-07
7.32379e-05
4.71022e-07
7.32052e-05
4.60651e-07
7.31729e-05
4.54474e-07
7.3145e-05
4.57275e-07
7.31242e-05
4.59956e-07
4.87057e-07
7.31158e-05
7.45184e-05
-4.28381e-08
7.4488e-05
2.18196e-07
7.44764e-05
3.78091e-07
7.45157e-05
4.95011e-07
7.45757e-05
5.83759e-07
7.46417e-05
6.45789e-07
7.47071e-05
6.89869e-07
7.47705e-05
7.2006e-07
7.48315e-05
7.3832e-07
7.489e-05
7.47015e-07
7.49457e-05
7.48175e-07
7.49985e-05
7.43357e-07
7.50482e-05
7.33811e-07
7.50947e-05
7.20595e-07
7.51379e-05
7.04591e-07
7.5178e-05
6.86529e-07
7.52149e-05
6.67015e-07
7.52488e-05
6.46545e-07
7.52798e-05
6.25531e-07
7.5308e-05
6.04309e-07
7.53337e-05
5.83161e-07
7.5357e-05
5.62328e-07
7.5378e-05
5.42032e-07
7.5397e-05
5.22491e-07
7.54142e-05
5.03953e-07
7.54297e-05
4.86701e-07
7.54439e-05
4.71148e-07
7.54572e-05
4.57697e-07
7.54707e-05
4.47188e-07
7.54856e-05
4.39544e-07
7.55064e-05
4.36484e-07
7.55341e-05
4.32279e-07
4.3086e-07
7.55903e-05
7.66035e-05
9.49424e-09
7.66281e-05
1.93641e-07
7.66643e-05
3.41869e-07
7.67022e-05
4.57128e-07
7.67402e-05
5.45701e-07
7.67794e-05
6.06628e-07
7.68209e-05
6.4837e-07
7.68643e-05
6.76639e-07
7.69086e-05
6.94039e-07
7.69529e-05
7.02719e-07
7.69966e-05
7.04449e-07
7.70394e-05
7.00601e-07
7.70809e-05
6.923e-07
7.7121e-05
6.80507e-07
7.71595e-05
6.6603e-07
7.71965e-05
6.49547e-07
7.72319e-05
6.31619e-07
7.72658e-05
6.12716e-07
7.72981e-05
5.93221e-07
7.73289e-05
5.73456e-07
7.73584e-05
5.53689e-07
7.73866e-05
5.34151e-07
7.74135e-05
5.15053e-07
7.74394e-05
4.96599e-07
7.74644e-05
4.79008e-07
7.74886e-05
4.62512e-07
7.75123e-05
4.47411e-07
7.75361e-05
4.33947e-07
7.75607e-05
4.22537e-07
7.75874e-05
4.12858e-07
7.76186e-05
4.05268e-07
7.7655e-05
3.95847e-07
3.85278e-07
7.77006e-05
7.88311e-05
2.42874e-08
7.88386e-05
1.86118e-07
7.88566e-05
3.23908e-07
7.88852e-05
4.28519e-07
7.89212e-05
5.09688e-07
7.896e-05
5.67837e-07
7.89997e-05
6.08684e-07
7.90396e-05
6.36751e-07
7.90793e-05
6.54332e-07
7.91186e-05
6.63407e-07
7.91574e-05
6.65699e-07
7.91954e-05
6.62566e-07
7.92326e-05
6.55108e-07
7.92688e-05
6.44253e-07
7.93041e-05
6.30775e-07
7.93383e-05
6.1532e-07
7.93715e-05
5.98427e-07
7.94037e-05
5.8054e-07
7.94349e-05
5.62028e-07
7.94651e-05
5.43197e-07
7.94945e-05
5.24306e-07
7.95231e-05
5.05573e-07
7.9551e-05
4.87196e-07
7.95782e-05
4.69357e-07
7.9605e-05
4.52239e-07
7.96315e-05
4.36018e-07
7.9658e-05
4.20885e-07
7.9685e-05
4.06944e-07
7.97132e-05
3.9431e-07
7.97435e-05
3.8255e-07
7.97775e-05
3.71333e-07
7.98152e-05
3.58078e-07
3.41939e-07
7.98586e-05
8.10847e-05
3.81318e-08
8.10946e-05
1.76233e-07
8.11179e-05
3.00606e-07
8.11483e-05
3.98076e-07
8.11827e-05
4.75319e-07
8.12183e-05
5.322e-07
8.12545e-05
5.72499e-07
8.1291e-05
6.00228e-07
8.13276e-05
6.17774e-07
8.13639e-05
6.27073e-07
8.13999e-05
6.29784e-07
8.14352e-05
6.27217e-07
8.14699e-05
6.20432e-07
8.15038e-05
6.10319e-07
8.1537e-05
5.97625e-07
8.15693e-05
5.82968e-07
8.16009e-05
5.66866e-07
8.16317e-05
5.49746e-07
8.16617e-05
5.31965e-07
8.16911e-05
5.13816e-07
8.17199e-05
4.95546e-07
8.17481e-05
4.77364e-07
8.17758e-05
4.59449e-07
8.18032e-05
4.41961e-07
8.18304e-05
4.25047e-07
8.18576e-05
4.08827e-07
8.18851e-05
3.93402e-07
8.19133e-05
3.78774e-07
8.19427e-05
3.64875e-07
8.1974e-05
3.51244e-07
8.2008e-05
3.37326e-07
8.20447e-05
3.2141e-07
3.02508e-07
8.20841e-05
8.341e-05
4.36266e-08
8.34199e-05
1.66398e-07
8.34405e-05
2.79937e-07
8.34679e-05
3.70762e-07
8.35e-05
4.43232e-07
8.35344e-05
4.97764e-07
8.35698e-05
5.3706e-07
8.36056e-05
5.64433e-07
8.36413e-05
5.82068e-07
8.36767e-05
5.91723e-07
8.37115e-05
5.94943e-07
8.37458e-05
5.92983e-07
8.37793e-05
5.86872e-07
8.38122e-05
5.7747e-07
8.38443e-05
5.65502e-07
8.38757e-05
5.51566e-07
8.39064e-05
5.36164e-07
8.39364e-05
5.19711e-07
8.39658e-05
5.0255e-07
8.39947e-05
4.84966e-07
8.4023e-05
4.67194e-07
8.4051e-05
4.4943e-07
8.40786e-05
4.3184e-07
8.4106e-05
4.1456e-07
8.41333e-05
3.97702e-07
8.41608e-05
3.81341e-07
8.41887e-05
3.65511e-07
8.42173e-05
3.50148e-07
8.42471e-05
3.35089e-07
8.42785e-05
3.19903e-07
8.43118e-05
3.04022e-07
8.43469e-05
2.86317e-07
2.66004e-07
8.43834e-05
8.57963e-05
4.60573e-08
8.5806e-05
1.56647e-07
8.58261e-05
2.5987e-07
8.58526e-05
3.44226e-07
8.58837e-05
4.12191e-07
8.59171e-05
4.64344e-07
8.59516e-05
5.02543e-07
8.59866e-05
5.29449e-07
8.60216e-05
5.47047e-07
8.60564e-05
5.56962e-07
8.60907e-05
5.60628e-07
8.61245e-05
5.59235e-07
8.61576e-05
5.53766e-07
8.619e-05
5.45049e-07
8.62217e-05
5.33777e-07
8.62527e-05
5.20529e-07
8.62831e-05
5.05789e-07
8.63129e-05
4.89958e-07
8.63421e-05
4.73368e-07
8.63707e-05
4.56293e-07
8.6399e-05
4.38958e-07
8.64268e-05
4.21548e-07
8.64545e-05
4.04212e-07
8.6482e-05
3.87067e-07
8.65095e-05
3.70195e-07
8.65372e-05
3.53639e-07
8.65653e-05
3.37386e-07
8.65941e-05
3.21339e-07
8.66239e-05
3.05302e-07
8.66549e-05
2.88902e-07
8.66873e-05
2.71655e-07
8.67208e-05
2.52821e-07
2.31876e-07
8.67549e-05
8.825e-05
4.60185e-08
8.826e-05
1.46714e-07
8.82791e-05
2.40765e-07
8.83043e-05
3.19044e-07
8.83338e-05
3.82614e-07
8.83661e-05
4.32098e-07
8.83998e-05
4.68865e-07
8.84342e-05
4.95054e-07
8.84688e-05
5.12438e-07
8.85032e-05
5.22488e-07
8.85374e-05
5.26514e-07
8.8571e-05
5.25627e-07
8.8604e-05
5.20756e-07
8.86363e-05
5.12686e-07
8.8668e-05
5.02079e-07
8.86991e-05
4.89492e-07
8.87295e-05
4.75388e-07
8.87593e-05
4.60154e-07
8.87885e-05
4.44109e-07
8.88173e-05
4.27517e-07
8.88457e-05
4.10591e-07
8.88737e-05
3.93504e-07
8.89015e-05
3.76392e-07
8.89293e-05
3.59353e-07
8.8957e-05
3.42451e-07
8.89849e-05
3.25701e-07
8.90133e-05
3.0907e-07
8.90421e-05
2.92447e-07
8.90718e-05
2.75644e-07
8.91023e-05
2.58356e-07
8.91338e-05
2.40208e-07
8.91659e-05
2.20723e-07
1.99592e-07
8.91982e-05
9.07727e-05
4.46019e-08
9.07826e-05
1.3681e-07
9.08008e-05
2.22561e-07
9.08249e-05
2.94967e-07
9.08533e-05
3.54218e-07
9.08845e-05
4.00888e-07
9.09174e-05
4.36016e-07
9.09511e-05
4.61303e-07
9.09853e-05
4.78301e-07
9.10194e-05
4.88334e-07
9.10533e-05
4.92593e-07
9.10868e-05
4.92109e-07
9.11199e-05
4.87751e-07
9.11523e-05
4.80262e-07
9.11841e-05
4.70268e-07
9.12153e-05
4.58299e-07
9.12459e-05
4.44797e-07
9.12759e-05
4.30132e-07
9.13054e-05
4.14608e-07
9.13344e-05
3.98478e-07
9.13631e-05
3.81944e-07
9.13914e-05
3.65166e-07
9.14195e-05
3.48268e-07
9.14476e-05
3.31336e-07
9.14756e-05
3.14416e-07
9.15038e-05
2.97513e-07
9.15323e-05
2.80583e-07
9.15612e-05
2.63522e-07
9.15907e-05
2.46165e-07
9.16208e-05
2.28278e-07
9.16514e-05
2.09592e-07
9.16823e-05
1.89807e-07
1.68766e-07
9.17131e-05
9.33669e-05
4.23524e-08
9.33768e-05
1.26959e-07
9.33941e-05
2.05176e-07
9.34171e-05
2.71955e-07
9.34444e-05
3.26992e-07
9.34745e-05
3.7075e-07
9.35065e-05
4.04046e-07
9.35395e-05
4.28239e-07
9.35732e-05
4.4467e-07
9.3607e-05
4.54527e-07
9.36407e-05
4.58885e-07
9.36741e-05
4.5869e-07
9.37071e-05
4.54751e-07
9.37396e-05
4.47763e-07
9.37716e-05
4.38317e-07
9.38029e-05
4.26912e-07
9.38338e-05
4.13968e-07
9.38641e-05
3.99836e-07
9.38939e-05
3.84807e-07
9.39232e-05
3.69118e-07
9.39522e-05
3.52961e-07
9.39809e-05
3.36485e-07
9.40094e-05
3.19804e-07
9.40377e-05
3.02993e-07
9.4066e-05
2.86089e-07
9.40945e-05
2.69092e-07
9.41231e-05
2.5196e-07
9.4152e-05
2.34603e-07
9.41813e-05
2.16891e-07
9.42109e-05
1.98654e-07
9.42408e-05
1.79708e-07
9.42707e-05
1.59877e-07
1.39101e-07
9.43004e-05
9.60348e-05
3.96517e-08
9.60445e-05
1.17246e-07
9.60611e-05
1.88557e-07
9.60831e-05
2.49932e-07
9.61093e-05
3.00841e-07
9.61384e-05
3.41625e-07
9.61695e-05
3.72941e-07
9.62019e-05
3.95878e-07
9.6235e-05
4.11586e-07
9.62684e-05
4.2112e-07
9.63018e-05
4.25444e-07
9.63351e-05
4.25423e-07
9.6368e-05
4.21803e-07
9.64006e-05
4.15231e-07
9.64326e-05
4.06259e-07
9.64642e-05
3.95358e-07
9.64952e-05
3.82922e-07
9.65258e-05
3.69285e-07
9.65559e-05
3.54719e-07
9.65855e-05
3.39449e-07
9.66148e-05
3.23656e-07
9.66438e-05
3.07479e-07
9.66726e-05
2.91023e-07
9.67013e-05
2.74356e-07
9.67298e-05
2.57512e-07
9.67584e-05
2.4049e-07
9.67871e-05
2.23257e-07
9.6816e-05
2.05744e-07
9.6845e-05
1.87854e-07
9.68742e-05
1.69472e-07
9.69034e-05
1.50483e-07
9.69325e-05
1.3079e-07
1.10397e-07
9.69612e-05
9.87787e-05
3.67271e-08
9.87882e-05
1.07723e-07
9.88041e-05
1.72636e-07
9.88252e-05
2.28826e-07
9.88503e-05
2.75695e-07
9.88785e-05
3.13473e-07
9.89087e-05
3.42692e-07
9.89404e-05
3.64233e-07
9.89729e-05
3.79076e-07
9.90059e-05
3.88147e-07
9.9039e-05
3.92313e-07
9.90721e-05
3.92353e-07
9.91049e-05
3.88954e-07
9.91374e-05
3.82713e-07
9.91696e-05
3.74143e-07
9.92012e-05
3.63685e-07
9.92324e-05
3.51708e-07
9.92632e-05
3.38523e-07
9.92935e-05
3.2439e-07
9.93235e-05
3.0952e-07
9.9353e-05
2.9408e-07
9.93823e-05
2.78204e-07
9.94114e-05
2.61987e-07
9.94402e-05
2.45494e-07
9.9469e-05
2.28758e-07
9.94977e-05
2.11785e-07
9.95264e-05
1.9455e-07
9.95551e-05
1.77008e-07
9.95839e-05
1.59093e-07
9.96126e-05
1.40734e-07
9.96412e-05
1.21868e-07
9.96696e-05
1.0245e-07
8.25209e-08
9.96974e-05
0.000101601
3.37186e-08
0.00010161
9.84322e-08
0.000101625
1.57359e-07
0.000101646
2.08567e-07
0.00010167
2.51481e-07
0.000101697
2.86238e-07
0.000101726
3.13271e-07
0.000101757
3.33298e-07
0.000101789
3.47148e-07
0.000101822
3.55633e-07
0.000101855
3.59523e-07
0.000101887
3.59519e-07
0.00010192
3.56247e-07
0.000101953
3.50255e-07
0.000101985
3.42018e-07
0.000102016
3.31943e-07
0.000102048
3.20376e-07
0.000102079
3.07608e-07
0.000102109
2.93881e-07
0.000102139
2.79392e-07
0.000102169
2.643e-07
0.000102199
2.48729e-07
0.000102228
2.32771e-07
0.000102257
2.16487e-07
0.000102286
1.99913e-07
0.000102314
1.83061e-07
0.000102343
1.6592e-07
0.000102372
1.48463e-07
0.0001024
1.30655e-07
0.000102428
1.12456e-07
0.000102456
9.38401e-08
0.000102484
7.47991e-08
5.53934e-08
0.000102511
0.000104503
3.07076e-08
0.000104512
8.93975e-08
0.000104527
1.42673e-07
0.000104547
1.89089e-07
0.00010457
2.28129e-07
0.000104596
2.59865e-07
0.000104625
2.84645e-07
0.000104655
3.03058e-07
0.000104687
3.15804e-07
0.000104719
3.2359e-07
0.000104751
3.27095e-07
0.000104784
3.26949e-07
0.000104816
3.23716e-07
0.000104848
3.17897e-07
0.000104881
3.09926e-07
0.000104912
3.00181e-07
0.000104944
2.8898e-07
0.000104975
2.76595e-07
0.000105005
2.6325e-07
0.000105036
2.4913e-07
0.000105066
2.34385e-07
0.000105095
2.1913e-07
0.000105124
2.03455e-07
0.000105154
1.87419e-07
0.000105182
1.71062e-07
0.000105211
1.54403e-07
0.00010524
1.37443e-07
0.000105268
1.20175e-07
0.000105296
1.02584e-07
0.000105324
8.4657e-08
0.000105351
6.63943e-08
0.000105378
4.78091e-08
2.89721e-08
0.000105405
0.000107489
2.77399e-08
0.000107498
8.06316e-08
0.000107512
1.28532e-07
0.000107531
1.70328e-07
0.000107553
2.05575e-07
0.000107579
2.34297e-07
0.000107607
2.56774e-07
0.000107636
2.73489e-07
0.000107667
2.85034e-07
0.000107699
2.92019e-07
0.000107731
2.95043e-07
0.000107763
2.94663e-07
0.000107795
2.91388e-07
0.000107827
2.8567e-07
0.000107859
2.77906e-07
0.000107891
2.6844e-07
0.000107923
2.57566e-07
0.000107954
2.45535e-07
0.000107984
2.32554e-07
0.000108015
2.18796e-07
0.000108045
2.04401e-07
0.000108074
1.89479e-07
0.000108104
1.74114e-07
0.000108133
1.58369e-07
0.000108161
1.42284e-07
0.00010819
1.25887e-07
0.000108218
1.09191e-07
0.000108246
9.2202e-08
0.000108274
7.49235e-08
0.000108301
5.73623e-08
0.000108328
3.95349e-08
0.000108354
2.14687e-08
3.23816e-09
0.00010838
0.00011056
2.48395e-08
0.000110568
7.2136e-08
0.000110582
1.14893e-07
0.0001106
1.52225e-07
0.000110622
1.83755e-07
0.000110647
2.09476e-07
0.000110674
2.29613e-07
0.000110703
2.44563e-07
0.000110733
2.54822e-07
0.000110764
2.60918e-07
0.000110796
2.63372e-07
0.000110828
2.62676e-07
0.00011086
2.59284e-07
0.000110892
2.53603e-07
0.000110924
2.4599e-07
0.000110955
2.36758e-07
0.000110987
2.26177e-07
0.000111018
2.14475e-07
0.000111049
2.01846e-07
0.000111079
1.88448e-07
0.000111109
1.74411e-07
0.000111139
1.59842e-07
0.000111168
1.4482e-07
0.000111197
1.29408e-07
0.000111226
1.13651e-07
0.000111254
9.75828e-08
0.000111282
8.12254e-08
0.000111309
6.45969e-08
0.000111337
4.77141e-08
0.000111363
3.05971e-08
0.00011139
1.32738e-08
0.000111415
-4.22038e-09
-2.18109e-08
0.00011144
0.000113718
2.20169e-08
0.000113727
6.39047e-08
0.00011374
1.01715e-07
0.000113757
1.34722e-07
0.000113778
1.62608e-07
0.000113803
1.85347e-07
0.000113829
2.03117e-07
0.000113857
2.16244e-07
0.000113887
2.25146e-07
0.000113918
2.30274e-07
0.000113949
2.32079e-07
0.000113981
2.30994e-07
0.000114012
2.27418e-07
0.000114044
2.21714e-07
0.000114076
2.14204e-07
0.000114108
2.05168e-07
0.000114139
1.94851e-07
0.00011417
1.83462e-07
0.000114201
1.71175e-07
0.000114231
1.58139e-07
0.000114261
1.44474e-07
0.000114291
1.30281e-07
0.00011432
1.15636e-07
0.000114349
1.00602e-07
0.000114377
8.52282e-08
0.000114405
6.95513e-08
0.000114433
5.3602e-08
0.00011446
3.7407e-08
0.000114487
2.09926e-08
0.000114513
4.38802e-09
0.000114538
-1.23719e-08
0.000114563
-2.92477e-08
-4.61666e-08
0.000114588
0.000116967
1.92748e-08
0.000116975
5.59256e-08
0.000116988
8.89591e-08
0.000117005
1.17765e-07
0.000117025
1.42074e-07
0.000117049
1.61851e-07
0.000117075
1.77235e-07
0.000117102
1.88494e-07
0.000117132
1.95978e-07
0.000117162
2.00069e-07
0.000117193
2.01157e-07
0.000117224
1.99616e-07
0.000117256
1.95798e-07
0.000117287
1.90021e-07
0.000117319
1.82571e-07
0.000117351
1.73699e-07
0.000117382
1.63623e-07
0.000117413
1.52532e-07
0.000117443
1.40586e-07
0.000117473
1.27919e-07
0.000117503
1.14643e-07
0.000117533
1.00852e-07
0.000117562
8.66212e-08
0.00011759
7.20114e-08
0.000117619
5.70729e-08
0.000117646
4.18473e-08
0.000117673
2.63705e-08
0.0001177
1.06753e-08
0.000117726
-5.20565e-09
0.000117752
-2.12375e-08
0.000117777
-3.73815e-08
0.000117801
-5.35965e-08
-6.98128e-08
0.000117825
0.000120309
1.66114e-08
0.000120316
4.81833e-08
0.000120329
7.65879e-08
0.000120345
1.01302e-07
0.000120365
1.22097e-07
0.000120388
1.38932e-07
0.000120413
1.51915e-07
0.000120441
1.61268e-07
0.000120469
1.67282e-07
0.000120499
1.70279e-07
0.00012053
1.7059e-07
0.000120561
1.68537e-07
0.000120592
1.64426e-07
0.000120624
1.58533e-07
0.000120655
1.51108e-07
0.000120686
1.42373e-07
0.000120718
1.32522e-07
0.000120748
1.21723e-07
0.000120779
1.10119e-07
0.000120809
9.7832e-08
0.000120839
8.49665e-08
0.000120868
7.16081e-08
0.000120897
5.78286e-08
0.000120925
4.36881e-08
0.000120953
2.92374e-08
0.00012098
1.45203e-08
0.000121007
-4.23909e-10
0.000121033
-1.55586e-08
0.000121059
-3.0847e-08
0.000121084
-4.62513e-08
0.000121108
-6.1731e-08
0.000121132
-7.72451e-08
-9.27274e-08
0.000121155
0.000123746
1.40225e-08
0.000123753
4.06599e-08
0.000123765
6.45653e-08
0.000123781
8.52832e-08
0.000123801
1.02618e-07
0.000123823
1.1653e-07
0.000123848
1.27103e-07
0.000123875
1.34519e-07
0.000123903
1.39019e-07
0.000123932
1.40871e-07
0.000123963
1.40354e-07
0.000123993
1.37742e-07
0.000124025
1.33295e-07
0.000124056
1.27249e-07
0.000124087
1.19823e-07
0.000124118
1.11206e-07
0.000124149
1.0157e-07
0.00012418
9.1062e-08
0.00012421
7.98072e-08
0.00012424
6.79172e-08
0.00012427
5.54861e-08
0.000124299
4.25928e-08
0.000124327
2.93047e-08
0.000124355
1.56795e-08
0.000124383
1.76768e-09
0.00012441
-1.23861e-08
0.000124436
-2.6741e-08
0.000124462
-4.12582e-08
0.000124487
-5.58992e-08
0.000124511
-7.0625e-08
0.000124535
-8.53949e-08
0.000124558
-1.00169e-07
-1.14886e-07
0.00012458
0.000127281
1.1502e-08
0.000127288
3.33358e-08
0.0001273
5.28544e-08
0.000127316
6.96574e-08
0.000127335
8.35787e-08
0.000127357
9.45825e-08
0.000127381
1.02737e-07
0.000127407
1.0819e-07
0.000127435
1.1114e-07
0.000127464
1.11807e-07
0.000127494
1.1042e-07
0.000127525
1.0721e-07
0.000127556
1.02393e-07
0.000127587
9.61686e-08
0.000127618
8.87199e-08
0.000127649
8.02108e-08
0.00012768
7.07851e-08
0.00012771
6.0574e-08
0.00012774
4.96809e-08
0.00012777
3.82079e-08
0.000127799
2.62392e-08
0.000127828
1.38457e-08
0.000127856
1.09035e-09
0.000127884
-1.19734e-08
0.000127911
-2.52958e-08
0.000127937
-3.88331e-08
0.000127963
-5.25443e-08
0.000127988
-6.63901e-08
0.000128013
-8.03317e-08
0.000128036
-9.43305e-08
0.000128059
-1.08347e-07
0.000128082
-1.22342e-07
-1.3626e-07
0.000128103
0.000130917
9.04528e-09
0.000130924
2.61949e-08
0.000130936
4.14256e-08
0.000130951
5.4382e-08
0.00013097
6.49261e-08
0.000130991
7.30311e-08
0.000131015
7.8755e-08
0.000131041
8.22202e-08
0.000131069
8.35884e-08
0.000131098
8.30335e-08
0.000131127
8.07412e-08
0.000131158
7.69022e-08
0.000131188
7.16916e-08
0.000131219
6.527e-08
0.00013125
5.77887e-08
0.000131281
4.93835e-08
0.000131312
4.01741e-08
0.000131342
3.02713e-08
0.000131372
1.97543e-08
0.000131401
8.72691e-09
0.00013143
-2.74664e-09
0.000131459
-1.46017e-08
0.000131487
-2.67818e-08
0.000131514
-3.92363e-08
0.000131541
-5.19189e-08
0.000131566
-6.47875e-08
0.000131592
-7.78022e-08
0.000131616
-9.09245e-08
0.00013164
-1.04117e-07
0.000131663
-1.17341e-07
0.000131685
-1.30561e-07
0.000131707
-1.4374e-07
-1.56824e-07
0.000131727
0.000134658
6.64123e-09
0.000134665
1.92102e-08
0.000134676
3.02332e-08
0.000134691
3.93942e-08
0.000134709
4.65859e-08
0.00013473
5.17964e-08
0.000134754
5.50796e-08
0.00013478
5.65372e-08
0.000134807
5.63022e-08
0.000134835
5.45025e-08
0.000134865
5.12797e-08
0.000134895
4.67902e-08
0.000134926
4.11684e-08
0.000134956
3.45384e-08
0.000134987
2.70216e-08
0.000135018
1.87214e-08
0.000135048
9.73416e-09
0.000135078
1.80615e-10
0.000135108
-9.953e-09
0.000135137
-2.05052e-08
0.000135166
-3.14497e-08
0.000135194
-4.2726e-08
0.000135222
-5.42852e-08
0.000135248
-6.60822e-08
0.000135275
-7.80745e-08
0.0001353
-9.02225e-08
0.000135325
-1.02489e-07
0.000135349
-1.14836e-07
0.000135372
-1.2723e-07
0.000135394
-1.39634e-07
0.000135415
-1.52013e-07
0.000135436
-1.64334e-07
-1.76548e-07
0.000135456
0.000138505
4.30457e-09
0.000138511
1.23993e-08
0.000138522
1.9288e-08
0.000138537
2.46863e-08
0.000138555
2.85256e-08
0.000138576
3.0821e-08
0.0001386
3.16328e-08
0.000138625
3.10518e-08
0.000138652
2.91831e-08
0.000138681
2.61035e-08
0.00013871
2.19273e-08
0.00013874
1.67839e-08
0.00013877
1.07517e-08
0.000138801
3.91291e-09
0.000138832
-3.62996e-09
0.000138862
-1.17995e-08
0.000138892
-2.05371e-08
0.000138922
-2.97662e-08
0.000138952
-3.94404e-08
0.000138981
-4.94843e-08
0.000139009
-5.98559e-08
0.000139037
-7.05091e-08
0.000139064
-8.14004e-08
0.00013909
-9.249e-08
0.000139116
-1.0374e-07
0.000139141
-1.15115e-07
0.000139165
-1.26581e-07
0.000139188
-1.38103e-07
0.000139211
-1.49649e-07
0.000139232
-1.61186e-07
0.000139253
-1.72682e-07
0.000139273
-1.84107e-07
-1.95415e-07
0.000139292
0.000142462
1.96337e-09
0.000142468
5.66237e-09
0.000142479
8.46912e-09
0.000142494
1.01328e-08
0.000142512
1.06298e-08
0.000142532
1.00071e-08
0.000142556
8.33265e-09
0.000142581
5.69603e-09
0.000142608
2.21952e-09
0.000142636
-2.1395e-09
0.000142666
-7.31412e-09
0.000142695
-1.31288e-08
0.000142726
-1.95785e-08
0.000142756
-2.66079e-08
0.000142787
-3.4164e-08
0.000142817
-4.21987e-08
0.000142847
-5.06669e-08
0.000142877
-5.9517e-08
0.000142906
-6.87132e-08
0.000142935
-7.82097e-08
0.000142963
-8.79672e-08
0.000142991
-9.795e-08
0.000143017
-1.08123e-07
0.000143043
-1.18454e-07
0.000143068
-1.28909e-07
0.000143093
-1.39459e-07
0.000143116
-1.50071e-07
0.000143139
-1.60716e-07
0.000143161
-1.71365e-07
0.000143181
-1.81987e-07
0.000143201
-1.92553e-07
0.00014322
-2.03038e-07
-2.13399e-07
0.000143238
0.000146531
-1.62748e-10
0.000146538
-7.35203e-10
0.000146548
-1.99344e-09
0.000146563
-4.14467e-09
0.00014658
-7.10876e-09
0.000146601
-1.07635e-08
0.000146624
-1.50061e-08
0.00014665
-1.9758e-08
0.000146677
-2.49664e-08
0.000146706
-3.06242e-08
0.000146735
-3.67001e-08
0.000146765
-4.31523e-08
0.000146795
-4.99816e-08
0.000146826
-5.71733e-08
0.000146856
-6.47061e-08
0.000146887
-7.25583e-08
0.000146917
-8.07086e-08
0.000146946
-8.91316e-08
0.000146976
-9.7804e-08
0.000147004
-1.06698e-07
0.000147032
-1.15786e-07
0.000147059
-1.25043e-07
0.000147085
-1.34443e-07
0.000147111
-1.43958e-07
0.000147135
-1.53563e-07
0.000147159
-1.63232e-07
0.000147182
-1.72937e-07
0.000147204
-1.82653e-07
0.000147225
-1.92355e-07
0.000147245
-2.02015e-07
0.000147264
-2.11609e-07
0.000147282
-2.21113e-07
-2.30491e-07
0.000147299
0.000150718
-2.66507e-09
0.000150725
-7.39641e-09
0.000150735
-1.25804e-08
0.00015075
-1.84103e-08
0.000150767
-2.47436e-08
0.000150788
-3.13936e-08
0.000150811
-3.8213e-08
0.000150837
-4.51093e-08
0.000150864
-5.20393e-08
0.000150892
-5.90134e-08
0.000150921
-6.60531e-08
0.000150951
-7.31705e-08
0.000150982
-8.03918e-08
0.000151012
-8.77409e-08
0.000151043
-9.52331e-08
0.000151073
-1.02878e-07
0.000151103
-1.1068e-07
0.000151133
-1.18637e-07
0.000151162
-1.26743e-07
0.00015119
-1.34987e-07
0.000151217
-1.43355e-07
0.000151244
-1.51833e-07
0.00015127
-1.60402e-07
0.000151295
-1.69046e-07
0.000151319
-1.77743e-07
0.000151343
-1.86473e-07
0.000151365
-1.95215e-07
0.000151386
-2.03948e-07
0.000151407
-2.12648e-07
0.000151426
-2.21295e-07
0.000151444
-2.29865e-07
0.000151461
-2.38338e-07
-2.46683e-07
0.000151478
0.000155023
-3.92265e-09
0.000155028
-1.27168e-08
0.000155038
-2.22463e-08
0.000155052
-3.24295e-08
0.00015507
-4.27222e-08
0.000155091
-5.2754e-08
0.000155115
-6.23381e-08
0.000155142
-7.14199e-08
0.00015517
-8.0027e-08
0.000155199
-8.82323e-08
0.000155229
-9.6119e-08
0.00015526
-1.03765e-07
0.00015529
-1.11247e-07
0.000155321
-1.18633e-07
0.000155352
-1.25974e-07
0.000155382
-1.33311e-07
0.000155412
-1.40673e-07
0.000155442
-1.48078e-07
0.000155471
-1.55537e-07
0.000155499
-1.63057e-07
0.000155526
-1.70634e-07
0.000155552
-1.78265e-07
0.000155578
-1.8594e-07
0.000155603
-1.93649e-07
0.000155626
-2.01379e-07
0.000155649
-2.09114e-07
0.000155671
-2.16837e-07
0.000155691
-2.24533e-07
0.000155711
-2.32183e-07
0.000155729
-2.39769e-07
0.000155747
-2.47273e-07
0.000155763
-2.54678e-07
-2.61956e-07
0.000155778
0.000159455
-7.86845e-09
0.000159462
-1.9885e-08
0.000159472
-3.26334e-08
0.000159486
-4.60811e-08
0.000159503
-5.97464e-08
0.000159523
-7.3022e-08
0.000159546
-8.54883e-08
0.000159572
-9.69783e-08
0.000159599
-1.075e-07
0.000159628
-1.17149e-07
0.000159658
-1.26059e-07
0.000159689
-1.34365e-07
0.00015972
-1.42199e-07
0.000159751
-1.49674e-07
0.000159782
-1.56885e-07
0.000159812
-1.63909e-07
0.000159842
-1.70806e-07
0.000159872
-1.7762e-07
0.000159901
-1.84385e-07
0.000159929
-1.91122e-07
0.000159956
-1.97845e-07
0.000159982
-2.04563e-07
0.000160008
-2.11275e-07
0.000160032
-2.1798e-07
0.000160055
-2.24673e-07
0.000160077
-2.31343e-07
0.000160099
-2.37981e-07
0.000160119
-2.44575e-07
0.000160138
-2.51111e-07
0.000160155
-2.57574e-07
0.000160172
-2.63951e-07
0.000160188
-2.70226e-07
-2.76378e-07
0.000160202
0.000164003
-5.24506e-09
0.000164005
-2.17625e-08
0.000164014
-4.09787e-08
0.000164029
-6.08754e-08
0.000164049
-7.98009e-08
0.000164073
-9.69985e-08
0.000164099
-1.12293e-07
0.000164128
-1.25792e-07
0.000164158
-1.37701e-07
0.000164189
-1.48255e-07
0.000164221
-1.5769e-07
0.000164253
-1.66221e-07
0.000164285
-1.74038e-07
0.000164316
-1.81298e-07
0.000164348
-1.88131e-07
0.000164378
-1.94642e-07
0.000164409
-2.00911e-07
0.000164438
-2.07002e-07
0.000164466
-2.12961e-07
0.000164494
-2.18824e-07
0.000164521
-2.24614e-07
0.000164547
-2.30348e-07
0.000164571
-2.36035e-07
0.000164595
-2.4168e-07
0.000164618
-2.47283e-07
0.000164639
-2.5284e-07
0.00016466
-2.58347e-07
0.000164679
-2.63796e-07
0.000164697
-2.69177e-07
0.000164714
-2.7448e-07
0.00016473
-2.79696e-07
0.000164744
-2.84813e-07
-2.89812e-07
0.000164758
0.000168701
-1.47392e-08
0.000168709
-2.99181e-08
0.000168717
-4.88703e-08
0.000168727
-7.06988e-08
0.000168741
-9.37027e-08
0.00016876
-1.15528e-07
0.000168782
-1.34952e-07
0.000168808
-1.5176e-07
0.000168837
-1.66171e-07
0.000168867
-1.78517e-07
0.000168898
-1.89139e-07
0.000168931
-1.98362e-07
0.000168963
-2.0647e-07
0.000168995
-2.137e-07
0.000169027
-2.20247e-07
0.000169059
-2.26267e-07
0.00016909
-2.31883e-07
0.00016912
-2.37189e-07
0.00016915
-2.4226e-07
0.000169178
-2.4715e-07
0.000169205
-2.51901e-07
0.000169231
-2.56542e-07
0.000169256
-2.61094e-07
0.00016928
-2.65571e-07
0.000169303
-2.69979e-07
0.000169324
-2.74322e-07
0.000169345
-2.78601e-07
0.000169364
-2.82813e-07
0.000169382
-2.86953e-07
0.000169398
-2.91014e-07
0.000169413
-2.9499e-07
0.000169427
-2.98873e-07
-3.02648e-07
0.00016944
0.000173491
5.4318e-09
0.000173485
-2.35854e-08
0.000173495
-5.89086e-08
0.000173517
-9.24805e-08
0.000173545
-1.22071e-07
0.000173576
-1.47017e-07
0.000173609
-1.67963e-07
0.000173643
-1.85491e-07
0.000173677
-2.00154e-07
0.000173711
-2.1245e-07
0.000173745
-2.22822e-07
0.000173778
-2.31654e-07
0.000173811
-2.39259e-07
0.000173843
-2.45894e-07
0.000173875
-2.51761e-07
0.000173905
-2.57026e-07
0.000173935
-2.61818e-07
0.000173964
-2.66237e-07
0.000173992
-2.70363e-07
0.00017402
-2.74258e-07
0.000174046
-2.77967e-07
0.000174071
-2.81526e-07
0.000174094
-2.8496e-07
0.000174117
-2.88289e-07
0.000174139
-2.91525e-07
0.000174159
-2.94676e-07
0.000174178
-2.97747e-07
0.000174196
-3.00739e-07
0.000174213
-3.03651e-07
0.000174228
-3.06482e-07
0.000174243
-3.09226e-07
0.000174256
-3.1188e-07
-3.14431e-07
0.000174267
0.000178498
-2.41101e-08
0.000178501
-2.63334e-08
0.00017849
-4.80754e-08
0.000178481
-8.37591e-08
0.000178484
-1.24671e-07
0.000178498
-1.60824e-07
0.00017852
-1.90215e-07
0.000178548
-2.13499e-07
0.00017858
-2.32009e-07
0.000178614
-2.46745e-07
0.00017865
-2.58508e-07
0.000178686
-2.67961e-07
0.000178722
-2.75632e-07
0.000178758
-2.81928e-07
0.000178794
-2.87169e-07
0.000178828
-2.91597e-07
0.000178862
-2.95399e-07
0.000178895
-2.9872e-07
0.000178926
-3.01666e-07
0.000178956
-3.04322e-07
0.000178985
-3.06749e-07
0.000179012
-3.08995e-07
0.000179038
-3.11093e-07
0.000179063
-3.1307e-07
0.000179086
-3.14945e-07
0.000179109
-3.16729e-07
0.000179129
-3.18432e-07
0.000179149
-3.20059e-07
0.000179167
-3.21613e-07
0.000179183
-3.23095e-07
0.000179198
-3.24504e-07
0.000179212
-3.25841e-07
-3.27097e-07
0.000179225
0.000183487
5.67287e-08
0.000183465
-4.35417e-09
0.000183501
-8.40113e-08
0.000183553
-1.36461e-07
0.000183605
-1.76348e-07
0.000183651
-2.07357e-07
0.000183693
-2.31964e-07
0.000183732
-2.52015e-07
0.000183768
-2.68235e-07
0.000183802
-2.81311e-07
0.000183836
-2.91899e-07
0.000183868
-3.00507e-07
0.0001839
-3.0753e-07
0.000183932
-3.1328e-07
0.000183963
-3.18011e-07
0.000183993
-3.2192e-07
0.000184023
-3.25166e-07
0.000184052
-3.27873e-07
0.00018408
-3.3014e-07
0.000184108
-3.32047e-07
0.000184135
-3.33655e-07
0.000184161
-3.35014e-07
0.000184186
-3.36163e-07
0.00018421
-3.37133e-07
0.000184233
-3.37948e-07
0.000184255
-3.38629e-07
0.000184276
-3.39188e-07
0.000184295
-3.39637e-07
0.000184314
-3.39985e-07
0.000184331
-3.40235e-07
0.000184347
-3.40392e-07
0.000184361
-3.40455e-07
-3.40425e-07
0.000184375
0.000188861
7.73893e-09
0.000188796
6.0452e-08
0.000188711
1.18509e-09
0.000188647
-7.304e-08
0.000188629
-1.58126e-07
0.000188643
-2.21279e-07
0.000188676
-2.64708e-07
0.000188719
-2.95447e-07
0.000188769
-3.17711e-07
0.000188822
-3.34092e-07
0.000188876
-3.46233e-07
0.000188931
-3.55258e-07
0.000188985
-3.61964e-07
0.000189039
-3.66921e-07
0.000189091
-3.70541e-07
0.000189143
-3.73127e-07
0.000189192
-3.74904e-07
0.00018924
-3.7604e-07
0.000189287
-3.76666e-07
0.000189332