/*--------------------------------*- C++ -*----------------------------------*\
| =========                 |                                                 |
| \\      /  F ield         | OpenFOAM: The Open Source CFD Toolbox           |
|  \\    /   O peration     | Version:  2.1.1                                 |
|   \\  /    A nd           | Web:      www.OpenFOAM.org                      |
|    \\/     M anipulation  |                                                 |
\*---------------------------------------------------------------------------*/
FoamFile
{
    version     2.0;
    format      ascii;
    class       volVectorField;
    location    "0.175";
    object      U;
}
// * * * * * * * * * * * * * * * * * * * * * * * * * * * * * * * * * * * * * //

dimensions      [0 1 -1 0 0 0 0];

internalField   nonuniform List<vector> 
6820
(
(8.34337 -0.360076 0)
(8.40109 -0.247152 0)
(8.35608 -0.115292 0)
(8.24777 -0.036556 0)
(8.11931 0.00601001 0)
(7.98586 0.0278724 0)
(7.85374 0.0386428 0)
(7.72631 0.0433432 0)
(7.60501 0.044615 0)
(7.49038 0.0439152 0)
(7.38264 0.0420855 0)
(7.28183 0.0396304 0)
(7.18782 0.036861 0)
(7.10041 0.0339729 0)
(7.01932 0.0310901 0)
(6.94421 0.0282899 0)
(6.87475 0.0256198 0)
(6.81057 0.0231068 0)
(6.75132 0.0207644 0)
(6.69662 0.0185973 0)
(6.64615 0.0166046 0)
(6.59955 0.0147821 0)
(6.55652 0.0131248 0)
(6.51673 0.0116285 0)
(6.47988 0.010292 0)
(6.44566 0.0091218 0)
(6.41373 0.00813683 0)
(6.38367 0.00738992 0)
(6.355 0.00698624 0)
(6.32675 0.00719584 0)
(6.29741 0.0088261 0)
(6.26377 0.0127533 0)
(6.21691 0.0292579 0)
(8.32138 0.166252 0)
(8.28709 0.190005 0)
(8.28543 0.13216 0)
(8.31739 0.0958627 0)
(8.36169 0.075027 0)
(8.40173 0.0623653 0)
(8.43281 0.0548827 0)
(8.45489 0.0503597 0)
(8.46881 0.0474551 0)
(8.47559 0.0454554 0)
(8.47627 0.0439657 0)
(8.47178 0.0427481 0)
(8.46296 0.0416636 0)
(8.45053 0.0406351 0)
(8.43513 0.0396222 0)
(8.41732 0.038606 0)
(8.39757 0.0375803 0)
(8.37632 0.0365463 0)
(8.3539 0.0355085 0)
(8.33063 0.0344735 0)
(8.30676 0.0334491 0)
(8.2825 0.0324434 0)
(8.25805 0.0314662 0)
(8.23354 0.0305291 0)
(8.2091 0.0296487 0)
(8.18483 0.0288499 0)
(8.16083 0.0281759 0)
(8.13712 0.0277016 0)
(8.11394 0.0275685 0)
(8.09105 0.0281027 0)
(8.07052 0.0297516 0)
(8.04993 0.034485 0)
(8.04923 0.0424774 0)
(8.3225 -0.060884 0)
(8.31397 -0.0832767 0)
(8.3305 -0.0540887 0)
(8.3443 -0.0202886 0)
(8.35316 0.00242478 0)
(8.36217 0.0165542 0)
(8.37189 0.0257965 0)
(8.3819 0.0320168 0)
(8.39172 0.0362389 0)
(8.40097 0.0391078 0)
(8.4094 0.0410183 0)
(8.41687 0.0422145 0)
(8.42334 0.0428701 0)
(8.42878 0.0431163 0)
(8.43321 0.0430524 0)
(8.43667 0.0427548 0)
(8.43921 0.0422828 0)
(8.44091 0.0416829 0)
(8.44181 0.040992 0)
(8.442 0.0402395 0)
(8.44153 0.0394495 0)
(8.44047 0.0386422 0)
(8.43888 0.0378358 0)
(8.43681 0.0370483 0)
(8.43432 0.0363009 0)
(8.43144 0.0356192 0)
(8.42824 0.0350468 0)
(8.42474 0.0346298 0)
(8.42105 0.0345117 0)
(8.41721 0.0346761 0)
(8.41373 0.0357902 0)
(8.4106 0.0361825 0)
(8.40916 0.0395728 0)
(8.33365 0.0145665 0)
(8.32976 0.0477089 0)
(8.32736 0.0539871 0)
(8.32868 0.0465763 0)
(8.33455 0.0410824 0)
(8.34206 0.0385836 0)
(8.34954 0.0377777 0)
(8.35674 0.0377368 0)
(8.3637 0.0379599 0)
(8.37039 0.0382266 0)
(8.37678 0.0384382 0)
(8.38286 0.0385536 0)
(8.38859 0.0385631 0)
(8.39398 0.03847 0)
(8.399 0.0382827 0)
(8.40366 0.038012 0)
(8.40796 0.0376704 0)
(8.41191 0.0372701 0)
(8.41554 0.0368233 0)
(8.41885 0.0363415 0)
(8.42186 0.0358361 0)
(8.42459 0.0353182 0)
(8.42707 0.0347999 0)
(8.4293 0.0342951 0)
(8.43132 0.033822 0)
(8.43314 0.0334039 0)
(8.4348 0.0330778 0)
(8.43632 0.0328876 0)
(8.4378 0.032918 0)
(8.43931 0.0332159 0)
(8.44127 0.0339558 0)
(8.44377 0.0348768 0)
(8.44808 0.0363361 0)
(8.3302 -0.00530681 0)
(8.32721 -0.00749739 0)
(8.33136 -0.0024322 0)
(8.33602 0.00806204 0)
(8.34008 0.0172422 0)
(8.34423 0.0234644 0)
(8.34861 0.0276534 0)
(8.35324 0.030621 0)
(8.35803 0.0327686 0)
(8.36287 0.0343284 0)
(8.36766 0.0354453 0)
(8.37237 0.0362139 0)
(8.37696 0.0367007 0)
(8.3814 0.036957 0)
(8.38568 0.0370252 0)
(8.38979 0.036941 0)
(8.39372 0.0367344 0)
(8.39748 0.0364311 0)
(8.40108 0.0360527 0)
(8.40451 0.0356181 0)
(8.40779 0.0351437 0)
(8.41092 0.0346445 0)
(8.41392 0.0341352 0)
(8.41679 0.0336311 0)
(8.41955 0.0331503 0)
(8.42221 0.0327133 0)
(8.42481 0.0323498 0)
(8.42737 0.0320877 0)
(8.42999 0.0319802 0)
(8.43273 0.0320152 0)
(8.43584 0.0322804 0)
(8.43943 0.0323718 0)
(8.44387 0.032462 0)
(8.33238 0.00229202 0)
(8.33117 0.0133247 0)
(8.33278 0.0204209 0)
(8.33547 0.0238221 0)
(8.3389 0.0259841 0)
(8.34292 0.0277996 0)
(8.34712 0.0294832 0)
(8.35134 0.0309836 0)
(8.35555 0.0322202 0)
(8.35973 0.0331823 0)
(8.36386 0.0338918 0)
(8.36792 0.0343767 0)
(8.3719 0.0346658 0)
(8.37579 0.0347877 0)
(8.37957 0.0347695 0)
(8.38324 0.0346348 0)
(8.3868 0.0344048 0)
(8.39026 0.0340977 0)
(8.39361 0.0337298 0)
(8.39685 0.0333153 0)
(8.4 0.0328671 0)
(8.40306 0.0323974 0)
(8.40604 0.0319182 0)
(8.40895 0.0314421 0)
(8.4118 0.0309835 0)
(8.41461 0.0305582 0)
(8.41741 0.0301861 0)
(8.42022 0.0298838 0)
(8.42312 0.0296734 0)
(8.42618 0.0295336 0)
(8.42955 0.029458 0)
(8.43331 0.0292139 0)
(8.43758 0.0287443 0)
(8.33232 0.000881303 0)
(8.33151 0.00580905 0)
(8.33339 0.0107988 0)
(8.33642 0.0156105 0)
(8.3398 0.0200068 0)
(8.34343 0.0235273 0)
(8.34714 0.0262189 0)
(8.35088 0.0282767 0)
(8.35464 0.0298373 0)
(8.35839 0.0310031 0)
(8.36211 0.0318512 0)
(8.36577 0.0324376 0)
(8.36937 0.0328054 0)
(8.3729 0.0329907 0)
(8.37635 0.0330241 0)
(8.37971 0.0329314 0)
(8.383 0.0327351 0)
(8.3862 0.0324545 0)
(8.38933 0.0321064 0)
(8.39238 0.0317056 0)
(8.39536 0.0312651 0)
(8.39829 0.030797 0)
(8.40116 0.0303127 0)
(8.40399 0.0298237 0)
(8.40679 0.0293415 0)
(8.40958 0.0288779 0)
(8.41238 0.0284451 0)
(8.41523 0.0280493 0)
(8.41818 0.0276939 0)
(8.42128 0.0273478 0)
(8.42462 0.0269736 0)
(8.42824 0.0264063 0)
(8.43216 0.0255501 0)
(8.33272 0.00171877 0)
(8.33255 0.00731628 0)
(8.33415 0.012626 0)
(8.33672 0.0169059 0)
(8.33973 0.0203705 0)
(8.34308 0.0231079 0)
(8.34661 0.0252817 0)
(8.35018 0.0270254 0)
(8.35376 0.028399 0)
(8.35731 0.0294487 0)
(8.36082 0.0302208 0)
(8.36427 0.0307555 0)
(8.36766 0.0310876 0)
(8.37098 0.0312481 0)
(8.37423 0.0312641 0)
(8.3774 0.0311594 0)
(8.3805 0.0309546 0)
(8.38353 0.0306674 0)
(8.3865 0.0303134 0)
(8.38941 0.0299062 0)
(8.39227 0.0294577 0)
(8.39508 0.0289786 0)
(8.39785 0.028479 0)
(8.40059 0.0279679 0)
(8.40333 0.0274542 0)
(8.40606 0.0269452 0)
(8.40882 0.0264466 0)
(8.41163 0.0259573 0)
(8.41454 0.0254691 0)
(8.41758 0.0249493 0)
(8.4208 0.0243512 0)
(8.42422 0.0235636 0)
(8.42781 0.0225033 0)
(8.33284 0.00179945 0)
(8.33293 0.00649345 0)
(8.33441 0.0110279 0)
(8.3368 0.0149376 0)
(8.33965 0.0183229 0)
(8.34281 0.0211356 0)
(8.34614 0.0234028 0)
(8.34952 0.0252078 0)
(8.35293 0.0266165 0)
(8.35633 0.0276869 0)
(8.35969 0.0284728 0)
(8.36299 0.0290183 0)
(8.36624 0.0293601 0)
(8.36943 0.0295296 0)
(8.37254 0.0295539 0)
(8.37559 0.0294562 0)
(8.37857 0.0292565 0)
(8.38149 0.0289721 0)
(8.38435 0.028618 0)
(8.38716 0.0282071 0)
(8.38992 0.0277506 0)
(8.39264 0.0272583 0)
(8.39534 0.026739 0)
(8.39801 0.0262001 0)
(8.40068 0.0256479 0)
(8.40336 0.0250862 0)
(8.40606 0.024516 0)
(8.40882 0.0239316 0)
(8.41166 0.0233192 0)
(8.4146 0.0226478 0)
(8.41768 0.0218735 0)
(8.42088 0.0209203 0)
(8.42418 0.0197264 0)
(8.33294 0.00184275 0)
(8.33322 0.00617489 0)
(8.33461 0.0104084 0)
(8.3368 0.0140961 0)
(8.33942 0.0172542 0)
(8.34237 0.0198718 0)
(8.34551 0.0219896 0)
(8.34874 0.023687 0)
(8.352 0.0250243 0)
(8.35527 0.0260498 0)
(8.35852 0.0268076 0)
(8.36172 0.0273359 0)
(8.36486 0.0276676 0)
(8.36795 0.0278313 0)
(8.37098 0.0278522 0)
(8.37394 0.027752 0)
(8.37684 0.0275496 0)
(8.37968 0.0272614 0)
(8.38247 0.0269013 0)
(8.38521 0.0264814 0)
(8.3879 0.0260122 0)
(8.39056 0.0255022 0)
(8.3932 0.0249591 0)
(8.39582 0.0243884 0)
(8.39843 0.0237943 0)
(8.40106 0.023178 0)
(8.40371 0.0225375 0)
(8.4064 0.0218643 0)
(8.40916 0.0211431 0)
(8.412 0.0203464 0)
(8.41493 0.0194378 0)
(8.41794 0.0183656 0)
(8.42099 0.0170889 0)
(8.33299 0.00180759 0)
(8.33337 0.00575256 0)
(8.33467 0.00958824 0)
(8.33668 0.0129796 0)
(8.33913 0.0159179 0)
(8.34189 0.0183957 0)
(8.34485 0.0204303 0)
(8.34793 0.0220742 0)
(8.35105 0.0233757 0)
(8.35419 0.0243771 0)
(8.35732 0.0251189 0)
(8.36042 0.0256372 0)
(8.36348 0.0259631 0)
(8.36648 0.0261239 0)
(8.36943 0.0261433 0)
(8.37232 0.0260421 0)
(8.37516 0.025838 0)
(8.37794 0.0255465 0)
(8.38067 0.0251807 0)
(8.38336 0.0247519 0)
(8.38601 0.0242695 0)
(8.38862 0.0237413 0)
(8.39121 0.0231736 0)
(8.39378 0.0225706 0)
(8.39635 0.0219348 0)
(8.39893 0.0212656 0)
(8.40153 0.0205591 0)
(8.40416 0.0198061 0)
(8.40684 0.0189918 0)
(8.40957 0.0180933 0)
(8.41236 0.0170822 0)
(8.41519 0.0159236 0)
(8.41803 0.0145921 0)
(8.33301 0.00173123 0)
(8.33346 0.00535303 0)
(8.33468 0.00886224 0)
(8.33653 0.0120033 0)
(8.33881 0.0147408 0)
(8.34139 0.017065 0)
(8.34418 0.0189867 0)
(8.3471 0.0205463 0)
(8.35009 0.0217861 0)
(8.3531 0.0227438 0)
(8.35612 0.0234553 0)
(8.35912 0.0239527 0)
(8.36209 0.0242646 0)
(8.36501 0.024416 0)
(8.36789 0.0244287 0)
(8.37072 0.024322 0)
(8.37349 0.0241126 0)
(8.37622 0.0238148 0)
(8.3789 0.0234407 0)
(8.38154 0.0230007 0)
(8.38414 0.0225033 0)
(8.38671 0.0219554 0)
(8.38926 0.0213622 0)
(8.3918 0.0207267 0)
(8.39432 0.0200502 0)
(8.39685 0.0193311 0)
(8.3994 0.0185646 0)
(8.40196 0.0177418 0)
(8.40456 0.0168495 0)
(8.40719 0.0158696 0)
(8.40984 0.0147808 0)
(8.41252 0.01356 0)
(8.41518 0.0121927 0)
(8.33303 0.00163072 0)
(8.33349 0.00495386 0)
(8.33464 0.00815496 0)
(8.33636 0.0110442 0)
(8.33847 0.0135776 0)
(8.34089 0.015745 0)
(8.34352 0.0175518 0)
(8.34629 0.0190271 0)
(8.34914 0.0202049 0)
(8.35203 0.0211174 0)
(8.35494 0.021796 0)
(8.35784 0.0222696 0)
(8.36071 0.0225642 0)
(8.36356 0.0227028 0)
(8.36636 0.0227058 0)
(8.36912 0.022591 0)
(8.37184 0.0223738 0)
(8.37451 0.0220675 0)
(8.37714 0.0216834 0)
(8.37973 0.0212308 0)
(8.38229 0.0207174 0)
(8.38482 0.0201493 0)
(8.38732 0.0195305 0)
(8.38981 0.0188636 0)
(8.39229 0.0181487 0)
(8.39477 0.0173838 0)
(8.39726 0.0165641 0)
(8.39975 0.0156816 0)
(8.40226 0.0147252 0)
(8.40479 0.0136811 0)
(8.40733 0.012534 0)
(8.40986 0.0112689 0)
(8.41238 0.00987815 0)
(8.33304 0.00151764 0)
(8.3335 0.00456266 0)
(8.33458 0.00748132 0)
(8.33617 0.0101327 0)
(8.33815 0.0124702 0)
(8.34041 0.0144813 0)
(8.34289 0.0161679 0)
(8.34552 0.0175509 0)
(8.34823 0.018658 0)
(8.351 0.0195168 0)
(8.3538 0.0201549 0)
(8.35659 0.020598 0)
(8.35938 0.0208695 0)
(8.36214 0.0209904 0)
(8.36486 0.0209793 0)
(8.36756 0.0208525 0)
(8.37021 0.0206243 0)
(8.37282 0.0203068 0)
(8.3754 0.0199103 0)
(8.37794 0.0194433 0)
(8.38045 0.0189127 0)
(8.38293 0.0183237 0)
(8.38539 0.0176797 0)
(8.38783 0.0169825 0)
(8.39026 0.016232 0)
(8.39268 0.0154259 0)
(8.3951 0.0145598 0)
(8.39753 0.013627 0)
(8.39995 0.0126187 0)
(8.40238 0.0115246 0)
(8.4048 0.0103342 0)
(8.40721 0.00903783 0)
(8.40958 0.00763261 0)
(8.33304 0.00139903 0)
(8.33349 0.00418022 0)
(8.3345 0.00683468 0)
(8.33599 0.00925651 0)
(8.33783 0.0114014 0)
(8.33996 0.0132553 0)
(8.3423 0.0148178 0)
(8.34478 0.0161037 0)
(8.34737 0.0171351 0)
(8.35002 0.0179354 0)
(8.35271 0.0185281 0)
(8.3554 0.0189361 0)
(8.35809 0.0191802 0)
(8.36077 0.0192794 0)
(8.36342 0.0192506 0)
(8.36604 0.0191087 0)
(8.36862 0.0188666 0)
(8.37118 0.0185356 0)
(8.3737 0.0181248 0)
(8.37618 0.0176421 0)
(8.37864 0.0170935 0)
(8.38107 0.0164835 0)
(8.38347 0.0158151 0)
(8.38586 0.0150895 0)
(8.38823 0.0143066 0)
(8.39059 0.0134642 0)
(8.39294 0.0125585 0)
(8.39529 0.0115841 0)
(8.39763 0.0105344 0)
(8.39995 0.00940202 0)
(8.40226 0.00817999 0)
(8.40455 0.00686244 0)
(8.4068 0.00544924 0)
(8.33304 0.00127903 0)
(8.33347 0.00380798 0)
(8.33442 0.00621378 0)
(8.33581 0.0084153 0)
(8.33754 0.0103723 0)
(8.33953 0.01207 0)
(8.34174 0.0135061 0)
(8.3441 0.0146907 0)
(8.34656 0.0156414 0)
(8.3491 0.0163776 0)
(8.35167 0.0169197 0)
(8.35427 0.0172876 0)
(8.35687 0.0174997 0)
(8.35946 0.017573 0)
(8.36203 0.0175229 0)
(8.36457 0.0173626 0)
(8.36709 0.0171041 0)
(8.36958 0.0167572 0)
(8.37204 0.0163306 0)
(8.37447 0.015831 0)
(8.37687 0.0152639 0)
(8.37924 0.0146332 0)
(8.38159 0.0139415 0)
(8.38391 0.0131899 0)
(8.38622 0.012378 0)
(8.38852 0.0115041 0)
(8.39079 0.0105652 0)
(8.39306 0.00955713 0)
(8.39531 0.00847517 0)
(8.39753 0.00731424 0)
(8.39974 0.00606996 0)
(8.40191 0.00473902 0)
(8.40404 0.00332298 0)
(8.33304 0.00116006 0)
(8.33345 0.00344659 0)
(8.33435 0.00561639 0)
(8.33564 0.00760564 0)
(8.33726 0.00937894 0)
(8.33914 0.0109212 0)
(8.34122 0.0122288 0)
(8.34346 0.0133087 0)
(8.3458 0.0141745 0)
(8.34823 0.0148422 0)
(8.3507 0.0153292 0)
(8.3532 0.0156527 0)
(8.3557 0.0158288 0)
(8.35821 0.0158727 0)
(8.3607 0.0157979 0)
(8.36318 0.0156165 0)
(8.36562 0.0153391 0)
(8.36805 0.0149747 0)
(8.37044 0.0145308 0)
(8.37281 0.0140137 0)
(8.37514 0.0134281 0)
(8.37746 0.0127774 0)
(8.37974 0.012064 0)
(8.38201 0.0112889 0)
(8.38425 0.0104517 0)
(8.38647 0.00955122 0)
(8.38867 0.00858521 0)
(8.39085 0.00755071 0)
(8.39301 0.00644441 0)
(8.39514 0.00526311 0)
(8.39724 0.00400426 0)
(8.3993 0.00266628 0)
(8.40132 0.00125172 0)
(8.33304 0.00104341 0)
(8.33343 0.00309627 0)
(8.33427 0.00504069 0)
(8.33548 0.00682509 0)
(8.337 0.00841873 0)
(8.33877 0.00980682 0)
(8.34074 0.0109849 0)
(8.34286 0.0119574 0)
(8.3451 0.0127346 0)
(8.34742 0.0133299 0)
(8.34979 0.0137577 0)
(8.35219 0.0140328 0)
(8.35461 0.0141692 0)
(8.35703 0.0141802 0)
(8.35944 0.0140779 0)
(8.36184 0.0138729 0)
(8.36422 0.0135747 0)
(8.36657 0.0131911 0)
(8.3689 0.0127291 0)
(8.3712 0.0121941 0)
(8.37348 0.0115902 0)
(8.37573 0.0109207 0)
(8.37795 0.0101876 0)
(8.38014 0.00939166 0)
(8.38231 0.00853301 0)
(8.38446 0.00761076 0)
(8.38658 0.00662338 0)
(8.38867 0.00556892 0)
(8.39074 0.00444527 0)
(8.39278 0.00325059 0)
(8.39478 0.00198366 0)
(8.39673 0.000644053 0)
(8.39865 -0.000765174 0)
(8.33303 0.000929707 0)
(8.3334 0.00275688 0)
(8.33419 0.00448494 0)
(8.33534 0.00607113 0)
(8.33676 0.00748892 0)
(8.33843 0.00872423 0)
(8.3403 0.009772 0)
(8.34231 0.0106348 0)
(8.34445 0.0113205 0)
(8.34666 0.0118398 0)
(8.34894 0.0122048 0)
(8.35125 0.0124278 0)
(8.35358 0.0125213 0)
(8.35592 0.0124965 0)
(8.35825 0.012364 0)
(8.36058 0.0121332 0)
(8.36288 0.0118124 0)
(8.36517 0.0114086 0)
(8.36743 0.0109278 0)
(8.36966 0.0103749 0)
(8.37187 0.00975354 0)
(8.37405 0.00906658 0)
(8.37621 0.00831583 0)
(8.37833 0.00750223 0)
(8.38043 0.00662597 0)
(8.3825 0.00568663 0)
(8.38454 0.0046833 0)
(8.38654 0.00361483 0)
(8.38852 0.00248008 0)
(8.39046 0.00127819 0)
(8.39236 8.88291e-06 0)
(8.39422 -0.00132754 0)
(8.39603 -0.00272775 0)
(8.33303 0.000819195 0)
(8.33338 0.00242804 0)
(8.33413 0.0039475 0)
(8.3352 0.00534145 0)
(8.33655 0.00658699 0)
(8.33812 0.00767101 0)
(8.33989 0.00858819 0)
(8.34181 0.00933972 0)
(8.34384 0.00993143 0)
(8.34596 0.0103718 0)
(8.34815 0.0106709 0)
(8.35037 0.010839 0)
(8.35262 0.0108865 0)
(8.35488 0.0108234 0)
(8.35713 0.0106585 0)
(8.35938 0.0104002 0)
(8.36162 0.0100555 0)
(8.36383 0.00963072 0)
(8.36603 0.00913096 0)
(8.36819 0.0085605 0)
(8.37033 0.00792267 0)
(8.37244 0.00721994 0)
(8.37453 0.00645399 0)
(8.37658 0.00562582 0)
(8.3786 0.00473581 0)
(8.38059 0.00378389 0)
(8.38255 0.00276969 0)
(8.38447 0.00169268 0)
(8.38636 0.000552465 0)
(8.3882 -0.000651117 0)
(8.39001 -0.0019177 0)
(8.39177 -0.00324652 0)
(8.39348 -0.00463415 0)
(8.33303 0.000711867 0)
(8.33336 0.00210914 0)
(8.33406 0.00342677 0)
(8.33508 0.00463373 0)
(8.33635 0.00571024 0)
(8.33784 0.00664433 0)
(8.33952 0.00743062 0)
(8.34135 0.00806935 0)
(8.34329 0.00856476 0)
(8.34532 0.00892353 0)
(8.34742 0.00915372 0)
(8.34955 0.00926399 0)
(8.35172 0.00926303 0)
(8.3539 0.00915914 0)
(8.35608 0.00896001 0)
(8.35826 0.00867263 0)
(8.36042 0.00830313 0)
(8.36257 0.00785685 0)
(8.36469 0.00733822 0)
(8.36679 0.00675095 0)
(8.36886 0.00609797 0)
(8.3709 0.00538146 0)
(8.37291 0.00460299 0)
(8.37489 0.00376356 0)
(8.37683 0.00286373 0)
(8.37875 0.00190371 0)
(8.38062 0.000883549 0)
(8.38246 -0.000196774 0)
(8.38426 -0.00133716 0)
(8.38601 -0.00253726 0)
(8.38772 -0.00379628 0)
(8.38938 -0.00511317 0)
(8.391 -0.00648452 0)
(8.33303 0.000607592 0)
(8.33334 0.00179953 0)
(8.334 0.0029213 0)
(8.33496 0.00394605 0)
(8.33616 0.00485671 0)
(8.33758 0.00564255 0)
(8.33918 0.00629838 0)
(8.34092 0.00682375 0)
(8.34278 0.00722164 0)
(8.34473 0.00749715 0)
(8.34674 0.00765668 0)
(8.3488 0.00770726 0)
(8.35089 0.00765603 0)
(8.35299 0.00750984 0)
(8.3551 0.00727514 0)
(8.35721 0.00695778 0)
(8.3593 0.00656291 0)
(8.36137 0.00609508 0)
(8.36343 0.00555799 0)
(8.36546 0.00495484 0)
(8.36746 0.00428817 0)
(8.36943 0.00355993 0)
(8.37137 0.00277156 0)
(8.37327 0.00192405 0)
(8.37514 0.00101809 0)
(8.37697 5.4134e-05 0)
(8.37876 -0.000967482 0)
(8.38052 -0.00204641 0)
(8.38222 -0.00318219 0)
(8.38389 -0.00437412 0)
(8.38551 -0.00562117 0)
(8.38708 -0.00692211 0)
(8.3886 -0.00827363 0)
(8.33303 0.000506157 0)
(8.33332 0.00149834 0)
(8.33395 0.00242927 0)
(8.33486 0.00327546 0)
(8.336 0.00402224 0)
(8.33735 0.00466019 0)
(8.33887 0.00518456 0)
(8.34054 0.00559459 0)
(8.34232 0.00589238 0)
(8.34419 0.00608176 0)
(8.34612 0.00616776 0)
(8.3481 0.00615606 0)
(8.35012 0.00605238 0)
(8.35215 0.00586221 0)
(8.35419 0.00559073 0)
(8.35622 0.00524272 0)
(8.35825 0.00482237 0)
(8.36026 0.0043334 0)
(8.36224 0.00377878 0)
(8.3642 0.00316139 0)
(8.36613 0.00248331 0)
(8.36803 0.00174613 0)
(8.3699 0.000951154 0)
(8.37173 9.93858e-05 0)
(8.37352 -0.000808437 0)
(8.37527 -0.00177172 0)
(8.37698 -0.0027899 0)
(8.37865 -0.0038624 0)
(8.38027 -0.00498851 0)
(8.38185 -0.00616732 0)
(8.38338 -0.00739763 0)
(8.38485 -0.00867814 0)
(8.38628 -0.0100057 0)
(8.33303 0.000407356 0)
(8.33331 0.00120514 0)
(8.3339 0.00195037 0)
(8.33476 0.00262261 0)
(8.33585 0.00320943 0)
(8.33713 0.00370274 0)
(8.33859 0.00409823 0)
(8.34018 0.00439483 0)
(8.34189 0.00459388 0)
(8.34369 0.00469797 0)
(8.34556 0.00471072 0)
(8.34747 0.00463652 0)
(8.34941 0.00447983 0)
(8.35138 0.004245 0)
(8.35335 0.00393617 0)
(8.35532 0.0035571 0)
(8.35727 0.00311105 0)
(8.35921 0.00260156 0)
(8.36113 0.00202981 0)
(8.36302 0.00139877 0)
(8.36488 0.000710371 0)
(8.36671 -3.40778e-05 0)
(8.36851 -0.000833467 0)
(8.37026 -0.00168685 0)
(8.37198 -0.00259348 0)
(8.37365 -0.00355268 0)
(8.37528 -0.00456376 0)
(8.37687 -0.00562599 0)
(8.37841 -0.00673851 0)
(8.3799 -0.00790029 0)
(8.38134 -0.00911009 0)
(8.38272 -0.0103666 0)
(8.38406 -0.0116668 0)
(8.33303 0.000310825 0)
(8.33329 0.000917952 0)
(8.33386 0.00147933 0)
(8.33468 0.00197694 0)
(8.33571 0.00240066 0)
(8.33694 0.00274431 0)
(8.33834 0.00300483 0)
(8.33987 0.00318161 0)
(8.34152 0.00327573 0)
(8.34325 0.00328899 0)
(8.34505 0.00322432 0)
(8.34689 0.00308515 0)
(8.34877 0.00287422 0)
(8.35067 0.0025943 0)
(8.35258 0.00224856 0)
(8.35448 0.00183972 0)
(8.35637 0.00137004 0)
(8.35825 0.000841067 0)
(8.3601 0.00025631 0)
(8.36192 -0.000383693 0)
(8.36372 -0.00107778 0)
(8.36548 -0.00182463 0)
(8.3672 -0.00262323 0)
(8.36888 -0.00347278 0)
(8.37052 -0.00437255 0)
(8.37212 -0.0053218 0)
(8.37367 -0.00631981 0)
(8.37518 -0.00736577 0)
(8.37663 -0.00845876 0)
(8.37804 -0.00959768 0)
(8.37939 -0.0107813 0)
(8.38069 -0.0120083 0)
(8.38194 -0.0132758 0)
(8.33302 0.000216872 0)
(8.33327 0.000640536 0)
(8.33381 0.00102764 0)
(8.33459 0.00136229 0)
(8.33558 0.0016359 0)
(8.33676 0.00184309 0)
(8.33811 0.00198094 0)
(8.33958 0.00204863 0)
(8.34117 0.00204716 0)
(8.34285 0.00197598 0)
(8.34459 0.00183615 0)
(8.34638 0.0016318 0)
(8.3482 0.00136534 0)
(8.35004 0.00103878 0)
(8.35188 0.000653747 0)
(8.35373 0.000211974 0)
(8.35556 -0.000284403 0)
(8.35737 -0.00083449 0)
(8.35916 -0.00143533 0)
(8.36092 -0.00208687 0)
(8.36265 -0.00278832 0)
(8.36434 -0.0035386 0)
(8.36599 -0.00433691 0)
(8.3676 -0.00518259 0)
(8.36917 -0.00607493 0)
(8.37069 -0.00701328 0)
(8.37216 -0.00799689 0)
(8.37359 -0.00902495 0)
(8.37496 -0.0100965 0)
(8.37629 -0.0112106 0)
(8.37756 -0.0123659 0)
(8.37877 -0.0135613 0)
(8.37994 -0.014794 0)
(8.33302 0.000122964 0)
(8.33327 0.000356796 0)
(8.33378 0.000553999 0)
(8.33453 0.000701994 0)
(8.33549 0.000797249 0)
(8.33662 0.000839135 0)
(8.33792 0.00082782 0)
(8.33935 0.000763957 0)
(8.34088 0.000647626 0)
(8.3425 0.000481584 0)
(8.34419 0.000266771 0)
(8.34592 8.60227e-07 0)
(8.34769 -0.000315805 0)
(8.34947 -0.000682192 0)
(8.35126 -0.00109792 0)
(8.35304 -0.00156237 0)
(8.35481 -0.00207458 0)
(8.35657 -0.00263338 0)
(8.3583 -0.00323953 0)
(8.35999 -0.00389172 0)
(8.36166 -0.0045892 0)
(8.36328 -0.00533157 0)
(8.36487 -0.00611836 0)
(8.36641 -0.00694906 0)
(8.3679 -0.00782312 0)
(8.36935 -0.00873993 0)
(8.37075 -0.0096988 0)
(8.3721 -0.010699 0)
(8.3734 -0.0117395 0)
(8.37464 -0.0128194 0)
(8.37583 -0.0139374 0)
(8.37697 -0.0150925 0)
(8.37805 -0.0162821 0)
(8.33302 3.90905e-05 0)
(8.33324 0.000118385 0)
(8.33372 0.000176431 0)
(8.33443 0.000197049 0)
(8.33534 0.000173583 0)
(8.33644 0.000103171 0)
(8.3377 -1.49028e-05 0)
(8.3391 -0.000179781 0)
(8.3406 -0.00039075 0)
(8.34219 -0.000644344 0)
(8.34384 -0.000938972 0)
(8.34553 -0.00127667 0)
(8.34725 -0.00165704 0)
(8.34899 -0.00207937 0)
(8.35073 -0.002543 0)
(8.35246 -0.00304753 0)
(8.35418 -0.00359297 0)
(8.35588 -0.00417909 0)
(8.35755 -0.00480577 0)
(8.35919 -0.00547257 0)
(8.36079 -0.00617934 0)
(8.36235 -0.00692592 0)
(8.36387 -0.00771205 0)
(8.36535 -0.00853741 0)
(8.36677 -0.00940161 0)
(8.36815 -0.0103042 0)
(8.36948 -0.0112446 0)
(8.37075 -0.0122222 0)
(8.37197 -0.0132362 0)
(8.37314 -0.0142857 0)
(8.37425 -0.0153697 0)
(8.37531 -0.0164872 0)
(8.37631 -0.0176359 0)
(8.33303 -6.27609e-05 0)
(8.33326 -0.000212441 0)
(8.33374 -0.000408328 0)
(8.33443 -0.000648081 0)
(8.33532 -0.000917041 0)
(8.33638 -0.00120387 0)
(8.3376 -0.00150306 0)
(8.33895 -0.00181345 0)
(8.3404 -0.00213616 0)
(8.34194 -0.00247607 0)
(8.34354 -0.00283744 0)
(8.34518 -0.00322176 0)
(8.34686 -0.00363191 0)
(8.34855 -0.00407075 0)
(8.35024 -0.00454056 0)
(8.35192 -0.00504314 0)
(8.35359 -0.0055799 0)
(8.35524 -0.00615179 0)
(8.35685 -0.00675956 0)
(8.35844 -0.0074037 0)
(8.35998 -0.00808444 0)
(8.36149 -0.0088019 0)
(8.36295 -0.00955605 0)
(8.36436 -0.0103467 0)
(8.36572 -0.0111736 0)
(8.36703 -0.0120364 0)
(8.36829 -0.0129344 0)
(8.3695 -0.0138671 0)
(8.37065 -0.0148336 0)
(8.37174 -0.0158332 0)
(8.37278 -0.0168647 0)
(8.37376 -0.0179272 0)
(8.37468 -0.0190187 0)
(8.333 -0.000107475 0)
(8.33315 -0.000285641 0)
(8.33355 -0.000469789 0)
(8.33419 -0.000696163 0)
(8.33505 -0.000976266 0)
(8.33612 -0.00130786 0)
(8.33735 -0.0016824 0)
(8.33871 -0.00209074 0)
(8.34018 -0.00252591 0)
(8.34172 -0.0029836 0)
(8.34332 -0.00346112 0)
(8.34495 -0.00395727 0)
(8.34661 -0.00447253 0)
(8.34827 -0.00500787 0)
(8.34993 -0.00556444 0)
(8.35157 -0.0061435 0)
(8.3532 -0.00674638 0)
(8.3548 -0.0073743 0)
(8.35636 -0.00802839 0)
(8.35789 -0.00870959 0)
(8.35938 -0.00941867 0)
(8.36083 -0.0101563 0)
(8.36223 -0.0109229 0)
(8.36357 -0.0117189 0)
(8.36487 -0.0125443 0)
(8.36612 -0.0133991 0)
(8.36731 -0.0142833 0)
(8.36844 -0.0151964 0)
(8.36952 -0.0161381 0)
(8.37054 -0.0171078 0)
(8.37151 -0.0181047 0)
(8.37241 -0.0191283 0)
(8.37326 -0.0201766 0)
(8.33306 -0.000307186 0)
(8.33335 -0.000993031 0)
(8.33381 -0.0017558 0)
(8.33443 -0.00252686 0)
(8.33523 -0.00325045 0)
(8.33621 -0.00390664 0)
(8.33735 -0.00449703 0)
(8.33863 -0.00503233 0)
(8.34002 -0.00552612 0)
(8.3415 -0.00599213 0)
(8.34304 -0.00644278 0)
(8.34463 -0.00688851 0)
(8.34624 -0.00733791 0)
(8.34786 -0.00779788 0)
(8.34948 -0.00827384 0)
(8.35109 -0.00876994 0)
(8.35268 -0.00928938 0)
(8.35424 -0.0098345 0)
(8.35577 -0.010407 0)
(8.35726 -0.0110082 0)
(8.3587 -0.0116387 0)
(8.3601 -0.0122992 0)
(8.36145 -0.0129898 0)
(8.36275 -0.0137106 0)
(8.364 -0.0144614 0)
(8.36519 -0.0152419 0)
(8.36632 -0.0160517 0)
(8.3674 -0.0168902 0)
(8.36842 -0.0177568 0)
(8.36938 -0.0186507 0)
(8.37028 -0.019571 0)
(8.37112 -0.020517 0)
(8.3719 -0.0214868 0)
(8.33294 -6.11796e-05 0)
(8.33286 -9.82642e-05 0)
(8.33308 -0.000204401 0)
(8.33368 -0.000503254 0)
(8.33458 -0.000999091 0)
(8.33571 -0.00163453 0)
(8.33702 -0.0023497 0)
(8.33844 -0.00310225 0)
(8.33994 -0.00386584 0)
(8.34151 -0.00462512 0)
(8.34311 -0.00537224 0)
(8.34472 -0.00610447 0)
(8.34634 -0.00682241 0)
(8.34796 -0.00752856 0)
(8.34956 -0.00822633 0)
(8.35113 -0.00891951 0)
(8.35268 -0.00961184 0)
(8.35419 -0.0103069 0)
(8.35567 -0.0110078 0)
(8.3571 -0.0117175 0)
(8.35848 -0.0124384 0)
(8.35982 -0.0131726 0)
(8.3611 -0.0139217 0)
(8.36233 -0.0146872 0)
(8.36351 -0.0154702 0)
(8.36463 -0.0162714 0)
(8.3657 -0.0170915 0)
(8.3667 -0.0179307 0)
(8.36765 -0.0187893 0)
(8.36854 -0.0196672 0)
(8.36937 -0.0205641 0)
(8.37014 -0.0214797 0)
(8.37085 -0.022413 0)
(8.33317 -0.000766221 0)
(8.33367 -0.00264417 0)
(8.33407 -0.00458795 0)
(8.33447 -0.00624519 0)
(8.33503 -0.00754386 0)
(8.33583 -0.00853976 0)
(8.33685 -0.0093075 0)
(8.33807 -0.0099112 0)
(8.33942 -0.0104023 0)
(8.34088 -0.0108207 0)
(8.34241 -0.0111966 0)
(8.34398 -0.011552 0)
(8.34558 -0.0119028 0)
(8.34719 -0.0122603 0)
(8.34879 -0.0126323 0)
(8.35036 -0.013024 0)
(8.35191 -0.013439 0)
(8.35342 -0.0138796 0)
(8.35489 -0.0143472 0)
(8.35632 -0.0148426 0)
(8.35769 -0.015366 0)
(8.35901 -0.0159174 0)
(8.36028 -0.0164966 0)
(8.36149 -0.0171031 0)
(8.36264 -0.0177366 0)
(8.36373 -0.0183962 0)
(8.36476 -0.0190814 0)
(8.36573 -0.0197914 0)
(8.36664 -0.0205253 0)
(8.36749 -0.0212825 0)
(8.36828 -0.0220619 0)
(8.369 -0.0228628 0)
(8.36967 -0.0236838 0)
(8.33263 0.000579133 0)
(8.33174 0.00200546 0)
(8.33175 0.00289532 0)
(8.3326 0.00282387 0)
(8.33387 0.00199204 0)
(8.33534 0.000762933 0)
(8.3369 -0.00062709 0)
(8.33851 -0.00205367 0)
(8.34014 -0.00344991 0)
(8.34177 -0.00477989 0)
(8.3434 -0.00602829 0)
(8.34501 -0.0071928 0)
(8.3466 -0.0082781 0)
(8.34816 -0.00929234 0)
(8.34969 -0.0102451 0)
(8.35119 -0.0111461 0)
(8.35265 -0.0120047 0)
(8.35406 -0.0128293 0)
(8.35544 -0.0136275 0)
(8.35676 -0.0144059 0)
(8.35804 -0.0151702 0)
(8.35927 -0.015925 0)
(8.36044 -0.0166747 0)
(8.36156 -0.0174224 0)
(8.36262 -0.0181711 0)
(8.36363 -0.018923 0)
(8.36458 -0.01968 0)
(8.36547 -0.0204435 0)
(8.3663 -0.0212147 0)
(8.36707 -0.0219943 0)
(8.36779 -0.022783 0)
(8.36844 -0.0235809 0)
(8.36904 -0.0243877 0)
(8.33358 -0.00194942 0)
(8.33467 -0.0068724 0)
(8.33443 -0.0116419 0)
(8.33373 -0.0148149 0)
(8.3335 -0.0165807 0)
(8.33391 -0.0175312 0)
(8.33479 -0.0179944 0)
(8.33599 -0.0181638 0)
(8.33741 -0.018174 0)
(8.33896 -0.0181124 0)
(8.34061 -0.0180329 0)
(8.3423 -0.0179683 0)
(8.344 -0.0179372 0)
(8.34569 -0.0179498 0)
(8.34736 -0.0180106 0)
(8.349 -0.0181206 0)
(8.35059 -0.0182793 0)
(8.35214 -0.0184846 0)
(8.35363 -0.0187343 0)
(8.35506 -0.0190256 0)
(8.35644 -0.019356 0)
(8.35775 -0.019723 0)
(8.359 -0.0201241 0)
(8.36019 -0.020557 0)
(8.36132 -0.0210199 0)
(8.36238 -0.0215107 0)
(8.36338 -0.0220277 0)
(8.36431 -0.0225695 0)
(8.36518 -0.0231344 0)
(8.36599 -0.0237213 0)
(8.36673 -0.0243288 0)
(8.36742 -0.0249561 0)
(8.36804 -0.0256016 0)
(8.33162 0.00369928 0)
(8.32827 0.0102605 0)
(8.32843 0.01343 0)
(8.33099 0.0133873 0)
(8.33361 0.011346 0)
(8.33582 0.00851667 0)
(8.33779 0.0055297 0)
(8.3396 0.00262929 0)
(8.34129 -7.24544e-05 0)
(8.34289 -0.00252753 0)
(8.34443 -0.00473043 0)
(8.34593 -0.00669703 0)
(8.34739 -0.00845158 0)
(8.34882 -0.0100208 0)
(8.35023 -0.011431 0)
(8.35162 -0.0127063 0)
(8.35299 -0.0138685 0)
(8.35433 -0.0149361 0)
(8.35563 -0.0159255 0)
(8.35691 -0.0168502 0)
(8.35815 -0.0177219 0)
(8.35935 -0.0185503 0)
(8.36051 -0.0193437 0)
(8.36163 -0.0201088 0)
(8.3627 -0.0208515 0)
(8.36372 -0.0215764 0)
(8.36469 -0.0222876 0)
(8.3656 -0.0229883 0)
(8.36647 -0.0236812 0)
(8.36727 -0.0243684 0)
(8.36802 -0.0250516 0)
(8.36872 -0.0257319 0)
(8.36935 -0.0264101 0)
(8.3343 -0.00642385 0)
(8.33463 -0.0206557 0)
(8.33074 -0.029869 0)
(8.32675 -0.0338429 0)
(8.32483 -0.0347239 0)
(8.32492 -0.0341627 0)
(8.32611 -0.0329714 0)
(8.32786 -0.0315473 0)
(8.32994 -0.0301128 0)
(8.33222 -0.0287841 0)
(8.3346 -0.0276127 0)
(8.33702 -0.026615 0)
(8.33944 -0.0257892 0)
(8.34183 -0.0251248 0)
(8.34417 -0.0246071 0)
(8.34646 -0.0242203 0)
(8.34869 -0.0239489 0)
(8.35085 -0.0237787 0)
(8.35294 -0.0236968 0)
(8.35496 -0.023692 0)
(8.3569 -0.0237546 0)
(8.35877 -0.0238759 0)
(8.36055 -0.0240487 0)
(8.36226 -0.0242668 0)
(8.36389 -0.0245249 0)
(8.36544 -0.0248184 0)
(8.36691 -0.0251434 0)
(8.3683 -0.0254966 0)
(8.36961 -0.0258752 0)
(8.37085 -0.0262767 0)
(8.37201 -0.026699 0)
(8.37309 -0.0271407 0)
(8.37411 -0.0275996 0)
(8.32884 0.0226012 0)
(8.32235 0.0427885 0)
(8.32668 0.0440285 0)
(8.33332 0.0380821 0)
(8.33784 0.0307442 0)
(8.3407 0.0236079 0)
(8.34302 0.0169854 0)
(8.34523 0.011052 0)
(8.34744 0.00586333 0)
(8.34972 0.00137174 0)
(8.35211 -0.00250294 0)
(8.35459 -0.00584251 0)
(8.35715 -0.00872457 0)
(8.35977 -0.0112195 0)
(8.36242 -0.0133887 0)
(8.36508 -0.0152843 0)
(8.36774 -0.0169505 0)
(8.37038 -0.0184244 0)
(8.37297 -0.019737 0)
(8.37552 -0.0209142 0)
(8.378 -0.0219776 0)
(8.38042 -0.0229453 0)
(8.38276 -0.0238323 0)
(8.38502 -0.0246514 0)
(8.38719 -0.025413 0)
(8.38927 -0.0261261 0)
(8.39126 -0.0267983 0)
(8.39316 -0.0274357 0)
(8.39497 -0.028044 0)
(8.39668 -0.0286274 0)
(8.39829 -0.0291902 0)
(8.39981 -0.0297351 0)
(8.40124 -0.0302664 0)
(8.32436 -0.0380234 0)
(8.29386 -0.0683007 0)
(8.27217 -0.0716614 0)
(8.2667 -0.0685489 0)
(8.27358 -0.0641857 0)
(8.2862 -0.0593492 0)
(8.30094 -0.0546616 0)
(8.31624 -0.0504815 0)
(8.33126 -0.0468695 0)
(8.34554 -0.0438002 0)
(8.35887 -0.0412282 0)
(8.37119 -0.0390944 0)
(8.38252 -0.0373366 0)
(8.39289 -0.0358977 0)
(8.40237 -0.0347276 0)
(8.41101 -0.0337831 0)
(8.41889 -0.0330275 0)
(8.42607 -0.0324303 0)
(8.4326 -0.0319658 0)
(8.43853 -0.031613 0)
(8.44393 -0.0313542 0)
(8.44882 -0.0311749 0)
(8.45325 -0.0310631 0)
(8.45725 -0.0310087 0)
(8.46086 -0.0310035 0)
(8.4641 -0.0310402 0)
(8.46701 -0.0311131 0)
(8.46961 -0.0312172 0)
(8.47191 -0.0313482 0)
(8.47394 -0.0315025 0)
(8.47572 -0.0316766 0)
(8.47726 -0.0318678 0)
(8.4786 -0.0320724 0)
(8.34002 0.156991 0)
(8.382 0.149002 0)
(8.4025 0.103389 0)
(8.39944 0.0645112 0)